<?xml version="1.0"?>
<VTKFile type="UnstructuredGrid"  version="0.1"  >
<UnstructuredGrid>
<Piece  NumberOfPoints="5028" NumberOfCells="9798">
<Points>
<DataArray  type="Float64"  NumberOfComponents="3"  format="ascii">0 1 0  0 0 0  1 0 0  1 1 0  0.5 1 0  0.5 0 0  0 0.5 0  1 0.5 0  0.5 0.5 0  0 0.25 0  0.25 0 0  0.25 1 0  0 0.75 0  1 0.25 0  0.75 0 0  1 0.75 0  0.75 1 0  0.7083333333333333 0.2916666666666667 0  0.2916666666666666 0.7083333333333334 0  0.375 0.25 0  0.75 0.625 0  0.2569444444444444 0.4652777777777778 0  0.5366379310344828 0.7535919540229885 0  0.1875 0.1875 0  0.8125 0.8125 0  0.869047619047619 0.375 0  0.1450441919191919 0.6052714646464646 0  0.375 0.8690476190476191 0  0.5526960784313725 0.1825980392156862 0  0.8385416666666666 0.1614583333333334 0  0.1614583333333333 0.8385416666666667 0  0.6736111111111112 0.4652777777777778 0  0.1367521367521368 0.3477564102564102 0  0.6570970491253563 0.8648656830417855 0  0.5102479397556124 0.3386260301221938 0  0.3654513888888889 0.5737847222222222 0  0.6929750044954185 0.1362784921584263 0  0.388576102743835 0.411911725237599 0  0.6091269841269842 0.5942460317460317 0  0.875 0.6875 0  0.427278890279516 0.119889445139758 0  0.8544456845238095 0.5213913690476191 0  0.125 0 0  0 0.125 0  1 0.875 0  0.875 1 0  0.1280008648150532 0.4769292340226777 0  0.2695382451711197 0.3321750950221553 0  0.7031567235715964 0.7447810921428012 0  0.625 0 0  0.375 0 0  0.125 1 0  0.875 0 0  0 0.375 0  0 0.625 0  1 0.375 0  0.375 1 0  1 0.125 0  0 0.875 0  0.625 1 0  1 0.625 0  0.2979288363930608 0.1201429454643536 0  0.410919540229885 0.7484605911330049 0  0.5325041980395562 0.878905151526474 0  0.4831670727569156 0.6331060043826487 0  0.1735997378973042 0.7204747378973043 0  0.2534919507575758 0.5772372159090909 0  0.2633928571428572 0.8876488095238095 0  0.8199404761904761 0.2730654761904762 0  0.75830270586982 0.3919383189517417 0  0.5750282248382511 0.4237522353023667 0  0.6008360210023379 0.2794828358598495 0  0.08163442644334186 0.6821295860397322 0  0.08333333333333333 0.1875 0  0.2028380815996574 0.08844602719988583 0  0.2766521142611967 0.2325436572164097 0  0.90625 0.78125 0  0.890625 0.890625 0  0.7545696325008384 0.8973565441669461 0  0.5625 0.08086590340834317 0  0.09077380952380953 0.09077380952380952 0  0.4610923478694773 0.209034015149656 0  0.7542527598351648 0.5248380520595106 0  0.6459235536037465 0.3619913988405765 0  0.7560381768882634 0.20506142233852 0  0.07073252688172042 0.8125 0  0.0924753097241701 0.9078102849914793 0  0.9292674731182795 0.1875 0  0.9075246902758297 0.09218971500852073 0  0.8125 0.07073252688172045 0  0.2400955776842301 0.7869705776842302 0  0.9121050213379069 0.2781978201831695 0  0.7916878157143976 0.7239689078571988 0  0.9345238095238094 0.4375 0  0.4375 0.9345238095238095 0  0.3725616989755203 0.6651895248862173 0  0.06536271996350887 0.5625 0  0.9348362560379583 0.5625 0  0.456646798987055 0.8277247094351965 0  0.1875 0.9355758238725954 0  0.6169761231634859 0.6939779188977889 0  0.6226854751147515 0.7827911461419014 0  0.3305695598137626 0.7901697871282585 0  0.5865305325818898 0.5101085479043448 0  0.6622701297028378 0.2177663989757395 0  0.1354166666666667 0.2591702279202279 0  0 0.3125 0  0.2094429575680048 0.3936361846162499 0  0.836666296419157 0.607917407161686 0  0.6875 1 0  0.214261555450504 0.6492551722020035 0  0 0.4375 0  0.07731537126068377 0.40625 0  0.3427725432967068 0.4879566233699599 0  0.3550792513951871 0.3331953632609953 0  0.4462473953896857 0.2887834789342508 0  0.4747801464819794 0.417386052030127 0  0.8229836475148948 0.4443292349237342 0  0.7322605135514757 0.8199240278289671 0  0.6756431877205955 0.5468989748126787 0  0.1968419507215863 0.5194573482612496 0  0.3285590277777778 0.9345238095238095 0  0.8125 1 0  0.4198917601920009 0.5134893045331258 0  0.5232405503206691 0.2595791787880157 0  1 0.9375 0  0.1987510870015086 0.3025185951894431 0  0.5625 1 0  0.6005390654136388 0.9228110509230952 0  0.6411254848194414 0.07704872765442942 0  0.3357233162523242 0.1855113224530532 0  0.6730653396610877 0.6393887462324165 0  0.310966987234063 0.6240019765311626 0  0.7368737836204349 0.07457755202327881 0  0.6192316414418171 0.1485238406378594 0  0.5432429670607106 0.678552703844006 0  0.4754371679695679 0.7103946803120881 0  0.07501324890749672 0.3043839897335739 0  0.5358146975860403 0.5688321463205916 0  0.3115271739500156 0.3982137365971444 0  0.3625191397122174 0.0767854603650549 0  0.5024029442563831 0.1264128223758444 0  0.4375 0 0  0.4699946908887376 0.06379961173775725 0  0.9375 0.71875 0  0.9272105898044465 0.635671179608893 0  0.9375 1 0  0.6690971819568612 0.9331530898202766 0  0.1073454944778885 0.7499206387638554 0  0.8699082999280406 0.2232403652524313 0  0.5773118091863964 0.3548027349159383 0  0.1354166666666667 0.1428571428571428 0  0.3125 0 0  0.8241684193077341 0.9257452995055244 0  0.4352314948354036 0.3586940847489378 0  0.4351301473778832 0.5819726043539077 0  0.8073232928518163 0.3419398170341962 0  0.7775949246947366 0.1298519409204575 0  0.6875 0 0  0.7413513991851041 0.457933324954483 0  0.939453125 0.841796875 0  0.5630355154606987 0.8171875156478349 0  0.9345238095238095 0.3461466592368577 0  0.9375 0 0  1 0.0625 0  0.0625 1 0  0 0.9375 0  0.06552178593177167 0.4969053669623468 0  0.1424866619031703 0.4130277709291224 0  0.1275287182444726 0.5422946908002588 0  0.2637686595586339 0.06413888464529549 0  0.2524263535491086 0.1697437503243817 0  0.7367218397988525 0.6888573970660841 0  0.0625 0 0  0 0.0625 0  0.8463594539285995 0.7578283617857982 0  0.3128751192101563 0.2851997374369947 0  0.4015281788351144 0.1806421385113692 0  0.1910251795116588 0.4553332197174453 0  0.287797471442006 0.5222621440543902 0  0.3962628745986055 0.8097380085535307 0  0.3505895299554843 0.7304878890838692 0  0.5019151500495276 0.9356042615328103 0  0.9374389419410134 0.4999931039076005 0  0.3125 1 0  0.1875 1 0  1 0.5625 0  0.4375 1 0  1 0.3125 0  1 0.4375 0  0.8125 0 0  1 0.1875 0  0.5625 0 0  0.1875 0 0  0 0.1875 0  0 0.5625 0  0 0.6875 0  0 0.8125 0  1 0.6875 0  1 0.8125 0  0.8021696218581627 0.6612893947866073 0  0.06154922295426143 0.6239401126946708 0  0.9359375 0.9359375 0  0.4666158024849896 0.7691515918155014 0  0.2318201265217025 0.7064974250277525 0  0.1565954253579966 0.6635489312486841 0  0.1598132503680848 0.7787147500325552 0  0.3146529991605639 0.8510876378205265 0  0.1461873209418733 0.05982804528877814 0  0.06109554988524315 0.2446551776247686 0  0.8054950308560754 0.5564226538848541 0  0.470541749491976 0.8853316336952531 0  0.6948472567465137 0.4042308563372457 0  0.8802828472348889 0.4658893256343853 0  0.6788075634946739 0.7974194205806069 0  0.2155048659603867 0.2428201584940968 0  0.8131223143423806 0.2132171049028394 0  0.4330798005432235 0.6671274900735726 0  0.6015279126162613 0.2187368078743274 0  0.8061636571464289 0.8703766630361714 0  0.7008230445061776 0.3478568388444072 0  0.8638466246958771 0.3147095987735538 0  0.204801534004265 0.8789209409594009 0  0.2449006736431132 0.9424182882803838 0  0.7611268409371427 0.2643056884799992 0  0.7552800864046191 0.7678006649959446 0  0.5983639638906616 0.864113435029236 0  0.1956559506814437 0.577281203577426 0  0.3527670268164207 0.1320469097565204 0  0.7530364577483248 0.3262386077083089 0  0.4535919187979363 0.4690107087451527 0  0.8824869791666666 0.8336588541666666 0  0.8814453125 0.9451171875 0  0.5582987942628019 0.622421666543858 0  0.6817532446064828 0.6939001801354731 0  0.3830295138888889 0.9450968952922078 0  0.4140603937012541 0.05211333372716105 0  0.5535864501303013 0.3060591985391672 0  0.6560130086346878 0.2729726562211558 0  0.890203140221684 0.5948314305427268 0  0.7043857725999024 0.593980890020804 0  0.5105843922695152 0.8016828014338627 0  0.05365910753708378 0.7315110031682004 0  0.616904573672261 0.4621186633436136 0  0.5338511646455415 0.387875898899613 0  0.5231769258947843 0.4477682463140762 0  0.650302973237622 0.7370722302085519 0  0.3927483139621257 0.4662414504529014 0  0.8034595960585199 0.4972538342758211 0  0.7738337841682438 0.9496376207663251 0  0.7193737507158268 0.954685447650112 0  0.482525916480686 0.5528257169991676 0  0.2533501157346781 0.2809495420003238 0  0.3118487924482243 0.5702930126570319 0  0.6257598847669529 0.4104163315430518 0  0.1354166666666667 0.1955605158730158 0  0.04166666666666666 0.15625 0  0.3956448985530264 0.6174149462065157 0  0.8102897701818546 0.3938784238208349 0  0.2641154190013625 0.8344469561943118 0  0.642852220770013 0.5068794586563659 0  0.05271458179508221 0.355846947336007 0  0.7021551360070266 0.8921457280225779 0  0.5692125776683765 0.1328512638850284 0  0.5206162811937602 0.04865158770992991 0  0.6001838442201555 0.04540556991297563 0  0.2597716608242787 0.4118346398477178 0  0.4040584599473195 0.3179589136784675 0  0.1480337679295207 0.8941560631483065 0  0.1344356707112281 0.9466251177415842 0  0.7114696411829317 0.4983917389078826 0  0.7585704698442475 0.5751926345944629 0  0.2189131956390871 0.04022068508159698 0  0.2476935455192043 0.1123642267635843 0  0.185995005654517 0.1365524537205238 0  0.6223414373308711 0.643380839165121 0  0.5732602596637543 0.7190051747306219 0  0.268358222364537 0.6586246524467934 0  0.3265879848129173 0.2369791782191225 0  0.1267095595787346 0.7034787238999181 0  0.1115202922226038 0.6421997933884982 0  0.3128688392940203 0.07260997451790079 0  0.550724900485678 0.9253360991633187 0  0.7142608810459105 0.2384904702214873 0  0.7045869185243887 0.1871826897887429 0  0.890625 0.734375 0  0.953125 0.765625 0  0.2111812642821677 0.8286209446459138 0  0.9590293078204457 0.09375 0  0.953431269039847 0.1435719386408004 0  0.04097069217955424 0.90625 0  0.04656873096015299 0.8564280613591996 0  0.1078743037981226 0.8541621766048062 0  0.8921256962018773 0.1458378233951939 0  0.8521576979194619 0.1084496634207678 0  0.8655663982740958 0.05464346096571447 0  0.04005659640905543 0.09375 0  0.1001448316533417 0.04246776244228261 
[...]
<PointData  Scalars="f_14-1"> 
<DataArray  type="Float64"  Name="f_14-1"  format="ascii">1.8109086156739861e-02  1.0262803647336873e+00  1.0252781891123464e+00  3.3246715940869204e-01  4.7766342999956685e-01  1.0253120636872517e+00  5.2335817043088084e-01  5.2528123347806488e-01  5.2452159653022246e-01  7.7554866252464960e-01  1.0257558224601346e+00  2.0549340083760873e-02  2.6676631975760612e-01  7.7527823438469279e-01  1.0252780016610901e+00  2.7305725230865974e-01  -1.3410960471879639e-02  7.3360833408494530e-01  3.0953303924602027e-01  7.7526055347421263e-01  4.0012993188688523e-01  5.5883082667300332e-01  2.6407701472106798e-01  8.3804741190053300e-01  2.1306824506933861e-01  6.5027879728761806e-01  4.1579981253697090e-01  1.4823019261221607e-01  8.4267284090812333e-01  8.6381983306963106e-01  1.7684396002258163e-01  5.5992061647440938e-01  6.7729205660984138e-01  1.5206446355399342e-01  6.8656854358357466e-01  4.4874249709778546e-01  8.8899862434753374e-01  6.1291590676828311e-01  4.3001108966541601e-01  3.3794228001055421e-01  9.0541249276010705e-01  5.0389391462100919e-01  1.0261160059989896e+00  9.0091848117150486e-01  1.2680840526136547e-01  -8.6596733646976155e-03  5.4685720545354866e-01  6.9293055006308468e-01  2.7894197360231016e-01  1.0252801957600732e+00  1.0254522441271758e+00  1.8519219478680030e-02  1.0252781794227315e+00  6.4986932876563408e-01  3.9543967758693399e-01  6.5027873520244317e-01  3.0535012065251426e-02  9.0027819042158252e-01  1.4022314006085698e-01  1.4260958006173770e-02  4.0021835075392781e-01  9.0529665008770388e-01  2.6791143078783769e-01  1.3715167796996275e-01  3.8871932287986549e-01  2.9708309275234523e-01  4.4477455611812100e-01  1.2897090150920620e-01  7.5221268054370427e-01  6.3333558236806942e-01  6.0137358878425762e-01  7.4578020635020814e-01  3.3660266820999107e-01  8.3820362715356034e-01  9.3723653577609667e-01  7.9280372842853775e-01  2.4391836174809484e-01  1.2981172224774484e-01  1.1951523994053677e-01  9.4441186157419832e-01  9.3514959597686187e-01  8.1623359732692713e-01  5.0040132504708934e-01  6.6326077744932765e-01  8.2021631743688506e-01  2.0302108754300074e-01  1.0788400208089281e-01  8.3777819903265183e-01  9.3308847464045119e-01  9.5454561671011018e-01  2.2888378044746427e-01  7.4708045588986172e-01  3.0147997688828626e-01  5.8777991301920374e-01  9.9677382315870408e-02  3.5444649252340049e-01  4.5960189515929811e-01  4.6279154296973146e-01  1.8695017494312929e-01  8.1436243059401892e-02  3.2844212868245765e-01  2.3661210452961506e-01  2.2536367431812876e-01  5.1473123893875317e-01  8.0750856650912139e-01  7.6626916768666120e-01  7.1277209565354638e-01  6.3111729151435714e-01  4.1739513811354356e-01  -3.2494345452953703e-03  3.7057457053187681e-01  5.8676111487800608e-01  6.1835307482546076e-01  5.3606655446232665e-01  6.9192024042021627e-01  7.3643685636149292e-01  6.0757719896661810e-01  5.8094929129928308e-01  2.0314138412685506e-01  4.7813043934921712e-01  5.0370562243055561e-01  8.6773728132002861e-02  -1.6321856133623153e-02  5.1048726082632889e-01  7.6567475344722025e-01  5.0924898790645955e-02  7.2272120015078978e-01  4.7960873603827003e-02  9.2663466117954674e-02  9.4822822478369728e-01  8.3982726301420652e-01  3.8505503621496961e-01  3.9683540012408630e-01  9.5070031953966239e-01  8.7675116574400924e-01  3.4265138297790487e-01  3.0818684364251231e-01  7.2091443287740820e-01  4.5509085696491858e-01  6.2658746400170207e-01  9.4859466143673266e-01  8.9886542787621482e-01  1.0253623331247810e+00  9.6149965023815231e-01  3.0642514754096495e-01  3.8964184175266969e-01  2.0981730985995845e-02  7.7365045411891029e-02  2.6684125288524813e-01  8.0203784604472428e-01  6.7041907946036405e-01  8.8287270339548629e-01  1.0255853589148112e+00  8.7181965604922917e-02  6.6640480182574757e-01  4.4081086934002556e-01  6.8333820246098209e-01  8.9542608068442964e-01  1.0252781398260660e+00  5.6732515874576650e-01  1.7966021498965692e-01  1.9836709804154720e-01  6.7913183725589321e-01  1.0252781889226503e+00  9.6277818909694102e-01  1.8205735676864628e-02  7.8631059691707486e-02  5.2652307556421241e-01  6.1153057234742891e-01  4.8031355416298765e-01  9.6143640869621549e-01  8.5572012030837175e-01  3.3602681415889812e-01  1.0262360379564706e+00  9.6357669038367189e-01  2.6795978408375176e-01  7.4003042626006776e-01  8.4465224267903860e-01  5.6880565449712694e-01  5.0105470772175520e-01  2.0526489299779477e-01  2.8655056025459275e-01  1.0207514367617097e-01  5.2529013947531511e-01  2.3430723566327798e-02  1.9190053286361648e-02  4.6277685386315676e-01  5.3625895946479575e-02  7.1277835731662353e-01  5.8777969113881001e-01  1.0252781241368467e+00  8.3777819882267879e-01  1.0252886270565154e+00  1.0259440768083874e+00  8.3825224614948346e-01  4.5958570783741570e-01  3.3105973742712841e-01  2.0300937470944433e-01  3.3732800610580405e-01  2.0426216836987393e-01  3.6404348803648290e-01  3.9653999097041559e-01  7.6987434199436836e-02  2.4660016948901553e-01  3.1146406174710184e-01  3.5578529754723981e-01  2.3736332900158869e-01  1.6488097395603363e-01  9.6605315809409653e-01  7.8089405551657809e-01  4.6885233303849316e-01  1.3412672130915407e-01  6.2102532632699592e-01  5.5939202110899833e-01  2.2403654244307594e-01  7.8257612027159473e-01  8.1206101180721380e-01  3.5286144456034235e-01  8.0653408973814966e-01  1.5206334752325315e-01  6.7741308632512753e-01  7.1056878015766567e-01  1.3691052023989050e-01  7.5876646229924766e-02  7.6097185764680075e-01  2.5709048753679486e-01  1.5108814387510697e-01  4.4460817360591126e-01  8.9330843392281523e-01  6.9903780058128939e-01  5.5559178230446160e-01  1.9109506092378264e-01  6.5211325908324957e-02  4.0073337886923333e-01  3.3003873433705405e-01  8.2661174130412365e-02  9.7322818015717893e-01  7.1918290398414586e-01  7.5229906027018989e-01  4.3047763678196765e-01  4.3100713007178715e-01  2.1330901795982296e-01  2.8574969744835338e-01  5.6299502742472851e-01  6.3726566794993034e-01  5.7717631301780248e-01  2.8509839411823890e-01  5.5818578043969669e-01  5.2802103983117976e-01  5.4473597796991818e-02  4.9070224399099860e-02  4.7092421535876650e-01  7.4432135337617022e-01  4.5207714303188945e-01  6.1479160462632765e-01  8.3005402076606205e-01  8.6957332470489002e-01  4.0406900044817678e-01  6.3139947045241085e-01  1.8112763490431405e-01  5.1817389174437622e-01  6.6916058450910931e-01  1.2381490415572097e-01  8.9242319880429155e-01  9.7663568324809447e-01  9.7987296612776331e-01  6.1281570704782162e-01  7.0720907140040301e-01  1.2156317526463283e-01  7.0177972747775930e-02  5.2681836421956152e-01  4.5001920317638583e-01  9.8551486478386796e-01  9.1317940176703793e-01  8.8908762256137175e-01  3.8029988155367417e-01  3.0131633314137174e-01  3.6096026890895233e-01  7.8831928679953522e-01  3.1460405930347735e-01  3.7776828881046587e-01  9.5285132780144177e-01  9.7030919675666627e-02  7.8678617282987229e-01  8.3809428508665140e-01  2.9112033824218336e-01  2.5867743172722008e-01  1.8687051906685079e-01  9.3152818960567751e-01  8.8170625301996952e-01  1.0930853868019530e-01  1.5877546502258594e-01  1.6111315116847597e-01  8.7944036807763426e-01  9.1682851450183689e-01  9.7063472272328077e-01  9.3222925490083142e-01  9.8356026000295571e-01  9.7526014721131082e-01  6.0091403905851014e-02  1.3225580967018091e-01  9.8061180047768992e-01  9.3808527903486050e-01  8.4759181599946254e-01  8.6156380907475527e-01  7.9917933290336318e-01  2.1892785781931598e-01  4.3395310686277000e-01  5.7422118435272429e-01  8.8668126486531318e-01  7.8732422856106454e-01  9.8275872799673325e-01  2.3929130001385632e-01  7.2301757328818517e-01  1.2537879566204677e-01  2.5843502198119017e-01  2.5521829663513917e-01  6.9998676748519928e-01  3.8579987193129522e-01  8.5444332511975185e-01  4.7769940292024315e-01  8.7222047753213616e-01  6.7483146316645226e-01  3.1050061315915489e-01  3.3044210810799729e-01  7.5628177372017014e-01  9.9112566513259803e-01  6.0673690611467468e-01  1.6659492336763324e-01  5.7059694463904520e-01  6.3345555005673404e-01  7.4416745905559700e-01  9.2320515634508105e-01  5.1356632253782286e-01  3.2733217791308628e-01  2.5711192874030209e-01  2.4417683825857564e-01  8.5335450368822763e-01  2.4503034963891021e-01  1.8659328523113070e-01  1.0394891817446365e-01  4.3947662798600023e-01  4.9152389686051190e-01  4.3153451640643070e-01  4.9551012015626372e-01  5.9714607573542511e-01  9.9160634131320047e-01  7.0629536842867335e-01  1.6989350362144534e-01  9.9233419343560625e-01  3.6898500660980355e-01  1.8886173103336965e-01  5.5587207025356500e-01  6.1137684308622618e-02  4.8896745212150572e-01  7.9812807005794950e-01  7.9754417837779346e-01  7.2159781361342545e-01  3.6326430948839028e-01  5.5510531438205046e-01  4.9273525898960330e-01  5.5799327974359225e-01  8.5879367134397713e-02  5.7030209642825742e-02  5.0619476519678554e-02  4.5995553942543022e-01  4.1878729842481827e-01  7.9701136921760640e-01  3.0884771880521831e-02  1.8112235200181961e-01  5.0225968008126876e-01  4.3006180677122502e-01  1.5622127572213265e-01  3.6380551689572682e-01  5.8828184200248257e-01  9.2242883365945194e-01  6.5321043951914270e-01  5.3322665655968035e-02  6.5514366085198217e-01  6.9691665798848113e-01  7.3569333060078490e-01  6.5979834483936317e-01  7.2225716394247275e-01  4.7206317273806897e-01  3.0840411394992662e-01  3.9695922401054140e-01  6.4369912261262952e-01  4.0653750032164021e-01  8.3467802836811067e-01  8.0410716605150501e-01  7.6671803642942449e-01  7.2885550342132543e-01  1.2771657174277373e-01  6.5905362972359127e-01  6.3932261102146259e-01  2.3091776645585280e-01  4.5941428390574651e-01  3.4639061421751477e-01  8.2149941175830554e-01  6.2998326598683263e-01  5.9770840653280077e-01  6.1412957876971397e-01  4.1511285648380020e-01  5.4346074040430614e-01  6.1857480742154594e-02  4.0032690647297187e-01  6.9020477449724671e-01  1.0252781891545308e+00  3.3479483397176846e-01  4.0240118751575005e-01  8.1536855371465511e-01  1.6763309891802261e-01  7.5987820420969709e-01  5.1139437934264065e-01  5.8746216298742993e-01  1.9747839835045380e-02  7.5713502398003951e-01  5.1509708655375563e-01  4.7502676167649460e-01  2.2997280458802416e-01  6.9727566770051752e-01  7.4857919701003450e-01  2.9779889499178375e-01  1.2228162671276210e-01  5.3384775231483073e-01  4.7565245953851198e-01  2.7059371008701394e-01  2.7757963222001752e-01  3.6265258015892166e-01  2.1876396140776805e-01  2.4120065997945572e-01  1.0256668076780080e+00  8.4283101665140903e-01  4.2982754546908258e-01  1.0014844496957458e-01  5.7521453721671077e-02  9.3526074521985503e-01  2.1310671562484010e-01  9.8497127614431745e-01  9.8915966445883341e-01  7.8711081640422642e-01  9.1109040900347604e-01  3.2495064574885346e-01  6.2802626443319498e-01  9.1146941864574960e-01  4.0541894022240878e-02  6.5686515901029574e-01  3.5266610989116143e-01  7.5778863453574596e-01  9.1567257440671690e-01  1.0252781867577563e+00  3.4922880302352732e-01  5.8883653528597513e-01  1.2128449435887928e-01  9.1473786017475245e-01  2.2118922420346732e-01  6.8278494145318847e-01  3.8309390568597383e-02  7.2732317173640260e-01  4.7910792322627971e-01  7.0572221513076594e-01  7.8294634041205613e-01  5.1379276020866782e-01  4.7475507187267674e-01  1.1318638408249199e-01  6.3848782440313423e-01  1.0252781609326123e+00  9.8857299646658803e-01  8.3796254213302868e-01  9.4396765055788523e-01  8.0925667847972238e-01  8.7435218856383434e-01  9.1992818880603477e-01  8.7282420348405343e-01  3.0497151465547256e-01  2.6992246832547323e-01  3.7483604256202108e-01  9.7042309446120378e-01  1.8798832987877337e-02  1.0344125121522922e-01  9.9747297308408728e-02  1.0969277150972226e-01  5.4545651998853473e-01  4.2432175156958381e-03  8.5914939670521284e-01  9.4226748901649449e-01  5.3967313807103146e-01  8.6435611569363868e-01  1.5853090000364756e-01  4.1813058392801233e-01  3.6931430210413829e-01  3.8011815524410864e-01  6.4984998948223738e-01  6.8152849565864071e-01  4.2621508966596089e-01  5.3736248659601227e-01  1.5074938296805473e-01  2.5384851897447047e-01  1.9501474362888571e-01  7.7956474349059257e-01  5.8460955062294806e-01  5.7244370299555503e-01  1.0260339051474137e+00  8.0652821107611306e-01  8.2208129364831506e-01  7.4499035299487995e-02  9.8110409832045864e-01  2.9920244372578308e-01  2.8033780439854689e-01  6.4657764177987154e-01  4.2850996482957995e-02  8.8122907829326924e-01  1.7293063067074627e-01  6.0471657096815856e-01  5.6261662493590303e-01  2.9887525488101913e-01  2.2085549531356818e-01  5.0051211196337063e-02  5.2899396413781302e-02  9.8984840145723185e-01  9.2125879209311246e-01  5.4212577007951568e-01  7.1172325572692896e-01  1.3356588207796838e-01  2.6207412563516413e-01  5.8313790534903143e-01  6.1035277802894283e-01  3.6403561986667166e-01  3.4516064025685450e-01  2.0352250074424594e-01  3.0255441007957790e-01  7.8077255546336688e-01  9.9174452287585102e-01  7.8359952414838541e-01  8.6941414546583429e-01  7.4402827874353339e-01  6.5880240986302929e-01  7.1557676474270526e-01  6.5601842859081338e-01  6.6165561688766861e-01  2.9023484402865973e-01  2.7516193449294568e-01  3.3228498203307638e-01  9.9402818907905977e-01  1.5539394843586762e-01  5.8266520855872972e-01  5.7770901078000514e-01  6.2927677227123102e-01  3.9495191494497574e-02  1.1508863699026908e-01  4.3956223038345238e-01  9.6739383055897954e-01  5.2533534678389882e-01  1.5656615070205732e-01  1.6341173616568960e-01  6.7156236446488005e-01  6.3613694264263565e-01  8.9988081166380907e-01  1.4068489457463162e-01  2.2918482442922070e-01  2.1338225980386699e-01  8.5917089085217102e-01  3.3504279124880831e-01  1.0626728601788422e-01  8.6292674986820928e-01  8.6054679550431734e-01  9.1576414964659469e-01  2.7460597545936788e-01  9.7840318918425240e-01  3.9684186036343222e-01  6.8134024172477448e-01  8.2991578952324663e-01  7.5656781526956840e-01  8.2841028782261489e-02  7.7749245114035581e-01  8.8577326585147997e-01  1.6415072150056081e-01  8.6419918063982068e-02  3.9863766012942337e-01  9.2773681632306995e-02  1.9833138274258999e-01  6.9453270094451292e-01  4.1677881416219664e-01  3.4003963785638136e-01  5.3119913682113606e-01  6.6590355147100766e-01  2.5928453006645436e-01  7.2996069301714062e-01  2.3951334660978896e-01  9.0590581738537856e-01  4.9188932520687706e-01  6.2724463261185237e-01  4.7922367829310530e-01  3.1897711342054885e-01  5.1356724550225585e-01  6.1046784468443938e-01  8.2900587400908166e-01  4.6203608426053810e-01  6.6574708283646511e-01  4.8047035215276229e-01  9.5452045127211516e-01  9.9242571592612772e-01  9.3565137724665814e-01  5.9087646096354218e-01  6.1902912115338815e-01  4.4553230366102220e-01  6.0570841239046602e-01  4.4849531625566164e-01  1.8665007135913408e-01  9.0127199924271484e-01  3.1282529399646025e-01  5.5599833826062406e-01  1.0254020001064199e+00  8.2049528286273399e-01  2.6111815772844188e-01  2.0189834533851417e-01  5.1332759663505900e-01  1.2703693771722663e-01  2.9296943435397438e-01  7.1616085522294159e-01  1.0387382255672355e-01  1.1238548028336910e-01  1.0262691463033253e+00  9.9491624312857263e-01  2.3762728520394738e-01  1.0252977527248477e+00  1.1249172152729879e-01  9.5397312966223047e-01  8.6902819305298229e-01  1.7147514574825407e-01  8.8183712149394522e-01  7.2510768146026772e-01  7.5933775925763491e-01  6.9863306573671757e-01  9.1607354526372886e-01  7.9816912122226269e-01  6.5591128076486738e-01  -1.5927520190416496e-02  9.9427153567907778e-01  9.5534912542924744e-01  9.4717136398900958e-01  5.8196463428531142e-01  9.9533782071829646e-01  3.4459871187243518e-01  8.2648932608781245e-01  1.9811072342265668e-01  4.7910928548665233e-01  1.9455193254254771e-01  1.5738102096319784e-01  2.7615667471682548e-01  2.9465155595087567e-01  1.9190535675901260e-01  9.7406773248188749e-01  4.1051435824856941e-01  2.8423962060229829e-01  4.9403896945348214e-01  5.2401265939549690e-01  1.7178311797414633e-01  8.6874934949388238e-01  5.2341209277652201e-01  6.3834253403137420e-02  4.0026974174383428e-01  1.0253333002667882e+00  2.1453708735098445e-03  2.7623788121334834e-02  -1.4225349879625968e-02  4.8257645772118586e-02  1.8133654898009728e-02  8.4400509233663934e-02  3.6326361694529480e-01  2.1712830371497814e-02  3.6885154287483196e-01  1.0252779866528721e+00  1.0252787228656532e+00  5.5653049168365143e-01  4.9403088236704584e-01  4.3151028863969443e-01  6.1834569206056433e-01  5.5510353390285772e-01  4.9152040718530193e-01  7.4417224574583196e-01  1.0255133714578082e+00  2.3478988366099490e-01  1.0252780658718650e+00  1.8331649492294131e-02  1.0261838149803018e+00  1.0928095040407558e-01  9.3152818939870052e-01  1.0258503120094964e+00  1.0252831339698316e+00  9.3224683380947115e-01  8.6958869356832436e-01  -9.2115993595094908e-03  9.3960292531052814e-02  8.6132820991830006e-02  4.3157168073279559e-02  5.7664671779165164e-02  4.2755307178334329e-01  8.0690708437623859e-01  2.6161612679108791e-02  3.0550895289451679e-01  1.6674325454872377e-01  7.2977980069006143e-01  1.3795720166312994e-01  3.6979850050527996e-01  5.3794974589532460e-02  7.7628766870001864e-01  1.1254264287447026e-01  7.4904394612382863e-01  7.8457803930230707e-01  8.1423519522520504e-01  3.2051437261508609e-01  9.9909292621672741e-01  7.9065032597853446e-01  2.0657574246971300e-01  4.2811564083488440e-01  3.6970217065336819e-01  3.9840711643950427e-01  4.9141125507424305e-01  7.5012134645580564e-01  8.1030198528851960e-01  5.7917227535756388e-01  3.9057667545014019e-01  5.2979997963991521e-01  7.2045639418411400e-01  4.6213692539449341e-01  4.0724517603203264e-01  5.5761598053630179e-01  6.4451322311038073e-01  4.3326502216409812e-01  3.3330542023618909e-01  8.2889055757057306e-01  2.1423556758518611e-01  6.0212267770681360e-01  5.6584728512297833e-01  8.5141871173650197e-01  8.6673912234274653e-01  6.1440086749595435e-01  6.6155103746991939e-01  3.1660895788866356e-01  6.8017232399926009e-01  7.3195094175310271e-01  4.2430790573773131e-01  5.9543928090293519e-01  7.6468823608472503e-01  1.8222697720319375e-01  4.9693246048879636e-01  3.7248874449859909e-01  3.4575913326808944e-01  3.2797151108418809e-01  4.7683554183055166e-01  4.9900755164694566e-01  4.3924705823830790e-01  1.5478261927514383e-01  4.6083722389560022e-01  1.9439024268471916e-01  3.0569112734781606e-01  2.5081355442601988e-01  2.6681754769190941e-01  7.8616844881215092e-02  6.2264671415435202e-01  2.1654765653060615e-01  7.5821727780651682e-01  7.8954069403667870e-01  1.8855663639392581e-01  2.1725252393763686e-01  3.8400738676269658e-01  3.7083860827117737e-01  3.2601045718825272e-01  1.7557298457796894e-01  6.3230262093515643e-01  2.3913676614955751e-01  1.1929278029121007e-01  1.1542847335762678e-01  1.0781285755649571e-01  1.6399331518014817e-01  1.3779219536253035e-01  9.1197569395434969e-02  4.5094615660227166e-01  8.0235785564206052e-01  4.0184819434582347e-01  3.9437030328983613e-01  6.9741386345990097e-01  3.3061781153371478e-01  4.4820254217183125e-01  5.4106971590404962e-01  4.8740894530581341e-01  1.5753508339122640e-01  8.8520081023337560e-01  7.1823752509974947e-01  7.6905240514088202e-02  5.0549230373633025e-01  4.8275434261257577e-01  9.3870805385646017e-01  7.0296142165738285e-01  9.1871040429803108e-01  9.8215169517489798e-01  1.8239690571838812e-01  1.4156787669246168e-01  2.3066089795454045e-01  7.3735124268973684e-01  4.6821331459064391e-02  4.4497973644594208e-01  3.7231177232915269e-01  5.2742773775178031e-01  8.0694593197610209e-01  5.0434739176654486e-01  2.0993134083199375e-01  3.7293430976929359e-01  4.7417893071655731e-01  4.4608443802918968e-01  1.0116976663066750e-01  8.4171440032579981e-02  4.7170428699993917e-02  9.3957311718944536e-01  9.1016650665542254e-01  8.0770567167340490e-01  4.3745054474744617e-02  3.5207237240003858e-01  7.5117906393715272e-01  1.0010965666055500e+00  8.4985018634018139e-01  6.9644201981867285e-02  8.9022390587707623e-01  4.2821215783341954e-01  9.7637160909655296e-01  8.4270250032175767e-02  8.5728742410781023e-01  1.0501056786071937e-01  1.507607