<?xml version="1.0"?>
<VTKFile type="UnstructuredGrid"  version="0.1"  >
<UnstructuredGrid>
<Piece  NumberOfPoints="3721" NumberOfCells="7200">
<Points>
<DataArray  type="Float64"  NumberOfComponents="3"  format="ascii">0 0 0  0.01666666666666667 0 0  0.03333333333333333 0 0  0.05 0 0  0.06666666666666667 0 0  0.08333333333333333 0 0  0.1 0 0  0.1166666666666667 0 0  0.1333333333333333 0 0  0.15 0 0  0.1666666666666667 0 0  0.1833333333333333 0 0  0.2 0 0  0.2166666666666667 0 0  0.2333333333333333 0 0  0.25 0 0  0.2666666666666667 0 0  0.2833333333333333 0 0  0.3 0 0  0.3166666666666667 0 0  0.3333333333333333 0 0  0.35 0 0  0.3666666666666666 0 0  0.3833333333333334 0 0  0.4 0 0  0.4166666666666667 0 0  0.4333333333333333 0 0  0.45 0 0  0.4666666666666667 0 0  0.4833333333333333 0 0  0.5 0 0  0.5166666666666667 0 0  0.5333333333333333 0 0  0.55 0 0  0.5666666666666667 0 0  0.5833333333333334 0 0  0.6 0 0  0.6166666666666667 0 0  0.6333333333333333 0 0  0.65 0 0  0.6666666666666666 0 0  0.6833333333333333 0 0  0.7 0 0  0.7166666666666667 0 0  0.7333333333333333 0 0  0.75 0 0  0.7666666666666667 0 0  0.7833333333333333 0 0  0.8 0 0  0.8166666666666667 0 0  0.8333333333333334 0 0  0.85 0 0  0.8666666666666667 0 0  0.8833333333333333 0 0  0.9 0 0  0.9166666666666666 0 0  0.9333333333333333 0 0  0.95 0 0  0.9666666666666667 0 0  0.9833333333333333 0 0  1 0 0  0 0.01666666666666667 0  0.01666666666666667 0.01666666666666667 0  0.03333333333333333 0.01666666666666667 0  0.05 0.01666666666666667 0  0.06666666666666667 0.01666666666666667 0  0.08333333333333333 0.01666666666666667 0  0.1 0.01666666666666667 0  0.1166666666666667 0.01666666666666667 0  0.1333333333333333 0.01666666666666667 0  0.15 0.01666666666666667 0  0.1666666666666667 0.01666666666666667 0  0.1833333333333333 0.01666666666666667 0  0.2 0.01666666666666667 0  0.2166666666666667 0.01666666666666667 0  0.2333333333333333 0.01666666666666667 0  0.25 0.01666666666666667 0  0.2666666666666667 0.01666666666666667 0  0.2833333333333333 0.01666666666666667 0  0.3 0.01666666666666667 0  0.3166666666666667 0.01666666666666667 0  0.3333333333333333 0.01666666666666667 0  0.35 0.01666666666666667 0  0.3666666666666666 0.01666666666666667 0  0.3833333333333334 0.01666666666666667 0  0.4 0.01666666666666667 0  0.4166666666666667 0.01666666666666667 0  0.4333333333333333 0.01666666666666667 0  0.45 0.01666666666666667 0  0.4666666666666667 0.01666666666666667 0  0.4833333333333333 0.01666666666666667 0  0.5 0.01666666666666667 0  0.5166666666666667 0.01666666666666667 0  0.5333333333333333 0.01666666666666667 0  0.55 0.01666666666666667 0  0.5666666666666667 0.01666666666666667 0  0.5833333333333334 0.01666666666666667 0  0.6 0.01666666666666667 0  0.6166666666666667 0.01666666666666667 0  0.6333333333333333 0.01666666666666667 0  0.65 0.01666666666666667 0  0.6666666666666666 0.01666666666666667 0  0.6833333333333333 0.01666666666666667 0  0.7 0.01666666666666667 0  0.7166666666666667 0.01666666666666667 0  0.7333333333333333 0.01666666666666667 0  0.75 0.01666666666666667 0  0.7666666666666667 0.01666666666666667 0  0.7833333333333333 0.01666666666666667 0  0.8 0.01666666666666667 0  0.8166666666666667 0.01666666666666667 0  0.8333333333333334 0.01666666666666667 0  0.85 0.01666666666666667 0  0.8666666666666667 0.01666666666666667 0  0.8833333333333333 0.01666666666666667 0  0.9 0.01666666666666667 0  0.9166666666666666 0.01666666666666667 0  0.9333333333333333 0.01666666666666667 0  0.95 0.01666666666666667 0  0.9666666666666667 0.01666666666666667 0  0.9833333333333333 0.01666666666666667 0  1 0.01666666666666667 0  0 0.03333333333333333 0  0.01666666666666667 0.03333333333333333 0  0.03333333333333333 0.03333333333333333 0  0.05 0.03333333333333333 0  0.06666666666666667 0.03333333333333333 0  0.08333333333333333 0.03333333333333333 0  0.1 0.03333333333333333 0  0.1166666666666667 0.03333333333333333 0  0.1333333333333333 0.03333333333333333 0  0.15 0.03333333333333333 0  0.1666666666666667 0.03333333333333333 0  0.1833333333333333 0.03333333333333333 0  0.2 0.03333333333333333 0  0.2166666666666667 0.03333333333333333 0  0.2333333333333333 0.03333333333333333 0  0.25 0.03333333333333333 0  0.2666666666666667 0.03333333333333333 0  0.2833333333333333 0.03333333333333333 0  0.3 0.03333333333333333 0  0.3166666666666667 0.03333333333333333 0  0.3333333333333333 0.03333333333333333 0  0.35 0.03333333333333333 0  0.3666666666666666 0.03333333333333333 0  0.3833333333333334 0.03333333333333333 0  0.4 0.03333333333333333 0  0.4166666666666667 0.03333333333333333 0  0.4333333333333333 0.03333333333333333 0  0.45 0.03333333333333333 0  0.4666666666666667 0.03333333333333333 0  0.4833333333333333 0.03333333333333333 0  0.5 0.03333333333333333 0  0.5166666666666667 0.03333333333333333 0  0.5333333333333333 0.03333333333333333 0  0.55 0.03333333333333333 0  0.5666666666666667 0.03333333333333333 0  0.5833333333333334 0.03333333333333333 0  0.6 0.03333333333333333 0  0.6166666666666667 0.03333333333333333 0  0.6333333333333333 0.03333333333333333 0  0.65 0.03333333333333333 0  0.6666666666666666 0.03333333333333333 0  0.6833333333333333 0.03333333333333333 0  0.7 0.03333333333333333 0  0.7166666666666667 0.03333333333333333 0  0.7333333333333333 0.03333333333333333 0  0.75 0.03333333333333333 0  0.7666666666666667 0.03333333333333333 0  0.7833333333333333 0.03333333333333333 0  0.8 0.03333333333333333 0  0.8166666666666667 0.03333333333333333 0  0.8333333333333334 0.03333333333333333 0  0.85 0.03333333333333333 0  0.8666666666666667 0.03333333333333333 0  0.8833333333333333 0.03333333333333333 0  0.9 0.03333333333333333 0  0.9166666666666666 0.03333333333333333 0  0.9333333333333333 0.03333333333333333 0  0.95 0.03333333333333333 0  0.9666666666666667 0.03333333333333333 0  0.9833333333333333 0.03333333333333333 0  1 0.03333333333333333 0  0 0.05 0  0.01666666666666667 0.05 0  0.03333333333333333 0.05 0  0.05 0.05 0  0.06666666666666667 0.05 0  0.08333333333333333 0.05 0  0.1 0.05 0  0.1166666666666667 0.05 0  0.1333333333333333 0.05 0  0.15 0.05 0  0.1666666666666667 0.05 0  0.1833333333333333 0.05 0  0.2 0.05 0  0.2166666666666667 0.05 0  0.2333333333333333 0.05 0  0.25 0.05 0  0.2666666666666667 0.05 0  0.2833333333333333 0.05 0  0.3 0.05 0  0.3166666666666667 0.05 0  0.3333333333333333 0.05 0  0.35 0.05 0  0.3666666666666666 0.05 0  0.3833333333333334 0.05 0  0.4 0.05 0  0.4166666666666667 0.05 0  0.4333333333333333 0.05 0  0.45 0.05 0  0.4666666666666667 0.05 0  0.4833333333333333 0.05 0  0.5 0.05 0  0.5166666666666667 0.05 0  0.5333333333333333 0.05 0  0.55 0.05 0  0.5666666666666667 0.05 0  0.5833333333333334 0.05 0  0.6 0.05 0  0.6166666666666667 0.05 0  0.6333333333333333 0.05 0  0.65 0.05 0  0.6666666666666666 0.05 0  0.6833333333333333 0.05 0  0.7 0.05 0  0.7166666666666667 0.05 0  0.7333333333333333 0.05 0  0.75 0.05 0  0.7666666666666667 0.05 0  0.7833333333333333 0.05 0  0.8 0.05 0  0.8166666666666667 0.05 0  0.8333333333333334 0.05 0  0.85 0.05 0  0.8666666666666667 0.05 0  0.8833333333333333 0.05 0  0.9 0.05 0  0.9166666666666666 0.05 0  0.9333333333333333 0.05 0  0.95 0.05 0  0.9666666666666667 0.05 0  0.9833333333333333 0.05 0  1 0.05 0  0 0.06666666666666667 0  0.01666666666666667 0.06666666666666667 0  0.03333333333333333 0.06666666666666667 0  0.05 0.06666666666666667 0  0.06666666666666667 0.06666666666666667 0  0.08333333333333333 0.06666666666666667 0  0.1 0.06666666666666667 0  0.1166666666666667 0.06666666666666667 0  0.1333333333333333 0.06666666666666667 0  0.15 0.06666666666666667 0  0.1666666666666667 0.06666666666666667 0  0.1833333333333333 0.06666666666666667 0  0.2 0.06666666666666667 0  0.2166666666666667 0.06666666666666667 0  0.2333333333333333 0.06666666666666667 0  0.25 0.06666666666666667 0  0.2666666666666667 0.06666666666666667 0  0.2833333333333333 0.06666666666666667 0  0.3 0.06666666666666667 0  0.3166666666666667 0.06666666666666667 0  0.3333333333333333 0.06666666666666667 0  0.35 0.06666666666666667 0  0.3666666666666666 0.06666666666666667 0  0.3833333333333334 0.06666666666666667 0  0.4 0.06666666666666667 0  0.4166666666666667 0.06666666666666667 0  0.4333333333333333 0.06666666666666667 0  0.45 0.06666666666666667 0  0.4666666666666667 0.06666666666666667 0  0.4833333333333333 0.06666666666666667 0  0.5 0.06666666666666667 0  0.5166666666666667 0.06666666666666667 0  0.5333333333333333 0.06666666666666667 0  0.55 0.06666666666666667 0  0.5666666666666667 0.06666666666666667 0  0.5833333333333334 0.06666666666666667 0  0.6 0.06666666666666667 0  0.6166666666666667 0.06666666666666667 0  0.6333333333333333 0.06666666666666667 0  0.65 0.06666666666666667 0  0.6666666666666666 0.06666666666666667 0  0.6833333333333333 0.06666666666666667 0  0.7 0.06666666666666667 0  0.7166666666666667 0.06666666666666667 0  0.7333333333333333 0.06666666666666667 0  0.75 0.06666666666666667 0  0.7666666666666667 0.06666666666666667 0  0.7833333333333333 0.06666666666666667 0  0.8 0.06666666666666667 0  0.8166666666666667 0.06666666666666667 0  0.8333333333333334 0.06666666666666667 0  0.85 0.06666666666666667 0  0.8666666666666667 0.06666666666666667 0  0.8833333333333333 0.06666666666666667 0  0.9 0.06666666666666667 0  0.9166666666666666 0.06666666666666667 0  0.9333333333333333 0.06666666666666667 0  0.95 0.06666666666666667 0  0.9666666666666667 0.06666666666666667 0  0.9833333333333333 0.06666666666666667 0  1 0.06666666666666667 0  0 0.08333333333333333 0  0.01666666666666667 0.08333333333333333 0  0.03333333333333333 0.08333333333333333 0  0.05 0.08333333333333333 0  0.06666666666666667 0.08333333333333333 0  0.08333333333333333 0.08333333333333333 0  0.1 0.08333333333333333 0  0.1166666666666667 0.08333333333333333 0  0.1333333333333333 0.08333333333333333 0  0.15 0.08333333333333333 0  0.1666666666666667 0.08333333333333333 0  0.1833333333333333 0.08333333333333333 0  0.2 0.08333333333333333 0  0.2166666666666667 0.083333333333
[...]
<PointData  Scalars="f_5-1"> 
<DataArray  type="Float64"  Name="f_5-1"  format="ascii">1.0392259462208302e+00  1.0392259462208324e+00  1.0392259462208497e+00  1.0392259462208802e+00  1.0392259462209228e+00  1.0392259462209794e+00  1.0392259462210478e+00  1.0392259462211286e+00  1.0392259462212201e+00  1.0392259462213227e+00  1.0392259462214348e+00  1.0392259462215558e+00  1.0392259462216842e+00  1.0392259462218205e+00  1.0392259462219637e+00  1.0392259462221110e+00  1.0392259462222631e+00  1.0392259462224183e+00  1.0392259462225768e+00  1.0392259462227376e+00  1.0392259462228994e+00  1.0392259462230633e+00  1.0392259462232278e+00  1.0392259462233944e+00  1.0392259462235609e+00  1.0392259462237288e+00  1.0392259462238997e+00  1.0392259462240696e+00  1.0392259462242428e+00  1.0392259462244191e+00  1.0392259462245985e+00  1.0392259462247826e+00  1.0392259462249722e+00  1.0392259462251681e+00  1.0392259462253726e+00  1.0392259462255860e+00  1.0392259462258109e+00  1.0392259462260500e+00  1.0392259462263063e+00  1.0392259462265812e+00  1.0392259462268791e+00  1.0392259462272042e+00  1.0392259462275610e+00  1.0392259462279534e+00  1.0392259462283888e+00  1.0392259462288709e+00  1.0392259462294058e+00  1.0392259462299971e+00  1.0392259462306475e+00  1.0392259462313549e+00  1.0392259462321136e+00  1.0392259462329070e+00  1.0392259462337150e+00  1.0392259462345037e+00  1.0392259462352333e+00  1.0392259462358613e+00  1.0392259462363507e+00  1.0392259462366789e+00  1.0392259462368301e+00  1.0392259462367883e+00  1.0392259462366804e+00  1.0225592795542044e+00  1.0225592795542071e+00  1.0225592795542242e+00  1.0225592795542549e+00  1.0225592795542988e+00  1.0225592795543559e+00  1.0225592795544252e+00  1.0225592795545067e+00  1.0225592795545995e+00  1.0225592795547027e+00  1.0225592795548153e+00  1.0225592795549363e+00  1.0225592795550653e+00  1.0225592795552008e+00  1.0225592795553420e+00  1.0225592795554881e+00  1.0225592795556375e+00  1.0225592795557910e+00  1.0225592795559462e+00  1.0225592795561038e+00  1.0225592795562624e+00  1.0225592795564220e+00  1.0225592795565830e+00  1.0225592795567442e+00  1.0225592795569063e+00  1.0225592795570697e+00  1.0225592795572338e+00  1.0225592795573994e+00  1.0225592795575669e+00  1.0225592795577370e+00  1.0225592795579097e+00  1.0225592795580867e+00  1.0225592795582681e+00  1.0225592795584557e+00  1.0225592795586502e+00  1.0225592795588534e+00  1.0225592795590672e+00  1.0225592795592928e+00  1.0225592795595331e+00  1.0225592795597902e+00  1.0225592795600669e+00  1.0225592795603671e+00  1.0225592795606946e+00  1.0225592795610536e+00  1.0225592795614491e+00  1.0225592795618847e+00  1.0225592795623670e+00  1.0225592795628995e+00  1.0225592795634850e+00  1.0225592795641243e+00  1.0225592795648153e+00  1.0225592795655492e+00  1.0225592795663119e+00  1.0225592795670804e+00  1.0225592795678249e+00  1.0225592795685097e+00  1.0225592795690976e+00  1.0225592795695539e+00  1.0225592795698488e+00  1.0225592795699687e+00  1.0225592795699108e+00  1.0058926128875594e+00  1.0058926128875638e+00  1.0058926128875811e+00  1.0058926128876122e+00  1.0058926128876573e+00  1.0058926128877148e+00  1.0058926128877854e+00  1.0058926128878676e+00  1.0058926128879613e+00  1.0058926128880648e+00  1.0058926128881780e+00  1.0058926128882999e+00  1.0058926128884289e+00  1.0058926128885639e+00  1.0058926128887049e+00  1.0058926128888506e+00  1.0058926128889996e+00  1.0058926128891512e+00  1.0058926128893049e+00  1.0058926128894605e+00  1.0058926128896168e+00  1.0058926128897743e+00  1.0058926128899330e+00  1.0058926128900911e+00  1.0058926128902503e+00  1.0058926128904104e+00  1.0058926128905707e+00  1.0058926128907328e+00  1.0058926128908967e+00  1.0058926128910624e+00  1.0058926128912309e+00  1.0058926128914027e+00  1.0058926128915791e+00  1.0058926128917607e+00  1.0058926128919488e+00  1.0058926128921453e+00  1.0058926128923509e+00  1.0058926128925672e+00  1.0058926128927972e+00  1.0058926128930423e+00  1.0058926128933054e+00  1.0058926128935906e+00  1.0058926128939001e+00  1.0058926128942391e+00  1.0058926128946113e+00  1.0058926128950212e+00  1.0058926128954746e+00  1.0058926128959762e+00  1.0058926128965306e+00  1.0058926128971399e+00  1.0058926128978036e+00  1.0058926128985177e+00  1.0058926128992713e+00  1.0058926129000447e+00  1.0058926129008099e+00  1.0058926129015304e+00  1.0058926129021637e+00  1.0058926129026711e+00  1.0058926129030248e+00  1.0058926129032117e+00  1.0058926129031944e+00  9.8922594622090287e-01  9.8922594622090754e-01  9.8922594622092530e-01  9.8922594622095683e-01  9.8922594622100268e-01  9.8922594622106130e-01  9.8922594622113269e-01  9.8922594622121607e-01  9.8922594622131044e-01  9.8922594622141546e-01  9.8922594622152960e-01  9.8922594622165239e-01  9.8922594622178228e-01  9.8922594622191806e-01  9.8922594622205939e-01  9.8922594622220472e-01  9.8922594622235382e-01  9.8922594622250559e-01  9.8922594622265902e-01  9.8922594622281446e-01  9.8922594622297000e-01  9.8922594622312654e-01  9.8922594622328330e-01  9.8922594622344040e-01  9.8922594622359827e-01  9.8922594622375604e-01  9.8922594622391458e-01  9.8922594622407467e-01  9.8922594622423599e-01  9.8922594622439874e-01  9.8922594622456439e-01  9.8922594622473348e-01  9.8922594622490634e-01  9.8922594622508442e-01  9.8922594622526860e-01  9.8922594622546034e-01  9.8922594622566062e-01  9.8922594622587168e-01  9.8922594622609528e-01  9.8922594622633309e-01  9.8922594622658844e-01  9.8922594622686411e-01  9.8922594622716387e-01  9.8922594622749183e-01  9.8922594622785154e-01  9.8922594622824966e-01  9.8922594622869031e-01  9.8922594622918070e-01  9.8922594622972571e-01  9.8922594623032933e-01  9.8922594623099436e-01  9.8922594623171689e-01  9.8922594623248861e-01  9.8922594623328941e-01  9.8922594623408877e-01  9.8922594623484372e-01  9.8922594623550575e-01  9.8922594623603033e-01  9.8922594623640092e-01  9.8922594623662974e-01  9.8922594623680171e-01  9.7255927955422194e-01  9.7255927955422716e-01  9.7255927955424559e-01  9.7255927955427823e-01  9.7255927955432497e-01  9.7255927955438526e-01  9.7255927955445831e-01  9.7255927955454402e-01  9.7255927955464017e-01  9.7255927955474719e-01  9.7255927955486354e-01  9.7255927955498811e-01  9.7255927955512034e-01  9.7255927955525845e-01  9.7255927955540189e-01  9.7255927955554933e-01  9.7255927955570010e-01  9.7255927955585342e-01  9.7255927955600818e-01  9.7255927955616461e-01  9.7255927955632138e-01  9.7255927955647847e-01  9.7255927955663612e-01  9.7255927955679322e-01  9.7255927955695087e-01  9.7255927955710864e-01  9.7255927955726651e-01  9.7255927955742549e-01  9.7255927955758548e-01  9.7255927955774713e-01  9.7255927955791155e-01  9.7255927955807897e-01  9.7255927955825028e-01  9.7255927955842636e-01  9.7255927955860855e-01  9.7255927955879762e-01  9.7255927955899524e-01  9.7255927955920340e-01  9.7255927955942389e-01  9.7255927955965882e-01  9.7255927955991017e-01  9.7255927956018207e-01  9.7255927956047794e-01  9.7255927956080201e-01  9.7255927956115884e-01  9.7255927956155519e-01  9.7255927956199739e-01  9.7255927956249222e-01  9.7255927956304744e-01  9.7255927956366972e-01  9.7255927956436228e-01  9.7255927956512511e-01  9.7255927956594912e-01  9.7255927956681243e-01  9.7255927956767718e-01  9.7255927956849020e-01  9.7255927956918697e-01  9.7255927956970911e-01  9.7255927957004895e-01  9.7255927957026511e-01  9.7255927957069543e-01  9.5589261288748928e-01  9.5589261288749416e-01  9.5589261288751382e-01  9.5589261288754868e-01  9.5589261288759797e-01  9.5589261288766114e-01  9.5589261288773797e-01  9.5589261288782712e-01  9.5589261288792837e-01  9.5589261288804050e-01  9.5589261288816207e-01  9.5589261288829175e-01  9.5589261288842930e-01  9.5589261288857286e-01  9.5589261288872129e-01  9.5589261288887395e-01  9.5589261288903005e-01  9.5589261288918803e-01  9.5589261288934724e-01  9.5589261288950755e-01  9.5589261288966809e-01  9.5589261288982885e-01  9.5589261288998895e-01  9.5589261289014860e-01  9.5589261289030780e-01  9.5589261289046734e-01  9.5589261289062710e-01  9.5589261289078709e-01  9.5589261289094762e-01  9.5589261289111005e-01  9.5589261289127470e-01  9.5589261289144234e-01  9.5589261289161365e-01  9.5589261289178895e-01  9.5589261289197081e-01  9.5589261289215977e-01  9.5589261289235727e-01  9.5589261289256455e-01  9.5589261289278482e-01  9.5589261289301963e-01  9.5589261289327121e-01  9.5589261289354399e-01  9.5589261289384198e-01  9.5589261289416905e-01  9.5589261289453209e-01  9.5589261289493754e-01  9.5589261289539396e-01  9.5589261289591076e-01  9.5589261289649796e-01  9.5589261289716509e-01  9.5589261289791971e-01  9.5589261289876437e-01  9.5589261289969030e-01  9.5589261290067074e-01  9.5589261290165728e-01  9.5589261290257266e-01  9.5589261290332006e-01  9.5589261290380245e-01  9.5589261290399941e-01  9.5589261290402572e-01  9.5589261290466210e-01  9.3922594622063893e-01  9.3922594622064492e-01  9.3922594622066702e-01  9.3922594622070521e-01  9.3922594622076061e-01  9.3922594622083078e-01  9.3922594622091560e-01  9.3922594622101452e-01  9.3922594622112621e-01  9.3922594622124900e-01  9.3922594622138189e-01  9.3922594622152411e-01  9.3922594622167410e-01  9.3922594622182987e-01  9.3922594622199074e-01  9.3922594622215527e-01  9.3922594622232258e-01  9.3922594622249123e-01  9.3922594622266087e-01  9.3922594622283084e-01  9.3922594622300037e-01  9.3922594622316924e-01  9.3922594622333666e-01  9.3922594622350297e-01  9.3922594622366840e-01  9.3922594622383304e-01  9.3922594622399702e-01  9.3922594622416056e-01  9.3922594622432465e-01  9.3922594622448996e-01  9.3922594622465716e-01  9.3922594622482725e-01  9.3922594622500022e-01  9.3922594622517819e-01  9.3922594622536149e-01  9.3922594622555222e-01  9.3922594622575184e-01  9.3922594622596212e-01  9.3922594622618494e-01  9.3922594622642308e-01  9.3922594622667932e-01  9.3922594622695821e-01  9.3922594622726430e-01  9.3922594622760280e-01  9.3922594622798161e-01  9.3922594622840960e-01  9.3922594622889732e-01  9.3922594622945810e-01  9.3922594623010669e-01  9.3922594623085776e-01  9.3922594623172484e-01  9.3922594623271460e-01  9.3922594623381850e-01  9.3922594623500388e-01  9.3922594623620004e-01  9.3922594623728628e-01  9.3922594623809574e-01  9.3922594623843758e-01  9.3922594623822842e-01  9.3922594623763733e-01  9.3922594623818989e-01  9.2255927955353156e-01  9.2255927955353878e-01  9.2255927955356620e-01  9.2255927955361372e-01  9.2255927955368078e-01  9.2255927955376693e-01  9.2255927955387018e-01  9.2255927955399053e-01  9.2255927955412498e-01  9.2255927955427253e-01  9.2255927955443151e-01  9.2255927955460038e-01  9.2255927955477701e-01  9.2255927955495998e-01  9.2255927955514772e-01  9.2255927955533801e-01  9.2255927955553030e-01  9.2255927955572326e-01  9.2255927955591555e-01  9.2255927955610639e-01  9.2255927955629535e-01  9.2255927955648154e-01  9.2255927955666561e-01  9.2255927955684636e-01  9.2255927955702466e-01  9.2255927955720107e-01  9.2255927955737560e-01  9.2255927955754857e-01  9.2255927955772055e-01  9.2255927955789274e-01  9.2255927955806605e-01  9.2255927955824191e-01  9.2255927955842032e-01  9.2255927955860295e-01  9.2255927955879191e-01  9.2255927955898709e-01  9.2255927955919270e-01  9.2255927955940875e-01  9.2255927955963857e-01  9.2255927955988537e-01  9.2255927956015216e-01  9.2255927956044370e-01  9.2255927956076689e-01  9.2255927956112782e-01  9.2255927956153716e-01  9.2255927956200656e-01  9.2255927956255102e-01  9.2255927956318984e-01  9.2255927956394501e-01  9.2255927956484063e-01  9.2255927956589878e-01  9.2255927956713479e-01  9.2255927956854078e-01  9.2255927957007122e-01  9.2255927957161576e-01  9.2255927957296913e-01  9.2255927957382267e-01  9.2255927957378370e-01  9.2255927957260198e-01  9.2255927957047790e-01  9.2255927957018080e-01  9.0589261288585821e-01  9.0589261288586798e-01  9.0589261288590672e-01  9.0589261288597456e-01  9.0589261288606937e-01  9.0589261288618983e-01  9.0589261288633394e-01  9.0589261288650014e-01  9.0589261288668499e-01  9.0589261288688672e-01  9.0589261288710254e-01  9.0589261288732970e-01  9.0589261288756540e-01  9.0589261288780754e-01  9.0589261288805301e-01  9.0589261288829970e-01  9.0589261288854650e-01  9.0589261288879097e-01  9.0589261288903156e-01  9.0589261288926770e-01  9.0589261288949841e-01  9.0589261288972300e-01  9.0589261288994161e-01  9.0589261289015388e-01  9.0589261289036016e-01  9.0589261289056133e-01  9.0589261289075773e-01  9.0589261289094958e-01  9.0589261289113898e-01  9.0589261289132639e-01  9.0589261289151335e-01  9.0589261289170120e-01  9.0589261289189038e-01  9.0589261289208400e-01  9.0589261289228307e-01  9.0589261289248935e-01  9.0589261289270517e-01  9.0589261289293332e-01  9.0589261289317691e-01  9.0589261289343925e-01  9.0589261289372547e-01  9.0589261289404166e-01  9.0589261289439571e-01  9.0589261289479706e-01  9.0589261289525980e-01  9.0589261289580159e-01  9.0589261289644407e-01  9.0589261289721634e-01  9.0589261289815259e-01  9.0589261289929113e-01  9.0589261290067158e-01  9.0589261290232004e-01  9.0589261290423162e-01  9.0589261290633516e-01  9.0589261290844447e-01  9.0589261291019407e-01  9.0589261291099810e-01  9.0589261291005863e-01  9.0589261290675627e-01  9.0589261290125156e-01  9.0589261289841772e-01  8.8922594621691708e-01  8.8922594621693163e-01  8.8922594621699635e-01  8.8922594621710838e-01  8.8922594621726470e-01  8.8922594621746165e-01  8.8922594621769635e-01  8.8922594621796458e-01  8.8922594621826134e-01  8.8922594621858275e-01  8.8922594621892348e-01  8.8922594621927964e-01  8.8922594621964524e-01  8.8922594622001638e-01  8.8922594622038875e-01  8.8922594622075934e-01  8.8922594622112439e-01  8.8922594622148099e-01  8.8922594622182727e-01  8.8922594622216167e-01  8.8922594622248274e-01  8.8922594622278961e-01  8.8922594622308304e-01  8.8922594622336215e-01  8.8922594622362838e-01  8.8922594622388296e-01  8.8922594622412565e-01  8.8922594622435891e-01  8.8922594622458451e-01  8.8922594622480355e-01  8.8922594622501872e-01  8.8922594622523121e-01  8.8922594622544415e-01  8.8922594622565876e-01  8.8922594622587792e-01  8.8922594622610429e-01  8.8922594622634066e-01  8.8922594622659168e-01  8.8922594622686013e-01  8.8922594622715223e-01  8.8922594622747353e-01  8.8922594622783313e-01  8.8922594622824214e-01  8.8922594622871476e-01  8.8922594622927109e-01  8.8922594622993778e-01  8.8922594623074869e-01  8.8922594623174878e-01  8.8922594623299267e-01  8.8922594623454354e-01  8.8922594623646600e-01  8.8922594623880824e-01  8.8922594624156370e-01  8.8922594624461315e-01  8.8922594624762741e-01  8.8922594624993800e-01  8.8922594625043117e-01  8.8922594624752860e-01  8.8922594623985507e-01  8.8922594622738815e-01  8.8922594621857287e-01  8.7255927954507184e-01  8.7255927954509693e-01  8.7255927954522028e-01  8.7255927954543200e-01  8.7255927954572587e-01  8.7255927954609569e-01  8.7255927954653389e-01  8.7255927954703172e-01  8.7255927954758039e-01  8.7255927954817014e-01  8.7255927954879187e-01  8.7255927954943580e-01  8.7255927955009227e-01  8.7255927955075285e-01  8.7255927955140955e-01  8.7255927955205526e-01  8.7255927955268375e-01  8.7255927955329016e-01  8.7255927955387047e-01  8.7255927955442181e-01  8.7255927955494228e-01  8.7255927955543156e-01  8.7255927955588919e-01  8.7255927955631585e-01  8.7255927955671331e-01  8.7255927955708323e-01  8.7255927955742763e-01  8.7255927955775037e-01  8.7255927955805401e-01  8.7255927955834112e-01  8.7255927955861567e-01  8.7255927955888091e-01  8.7255927955914059e-01  8.7255927955939871e-01  8.7255927955965862e-01  8.7255927955992474e-01  8.7255927956020196e-01  8.7255927956049484e-01  8.7255927956081036e-01  8.7255927956115620e-01  8.7255927956154189e-01  8.7255927956198054e-01  8.7255927956248824e-01  8.7255927956308765e-01  8.7255927956380952e-01  8.7255927956469559e-01  8.7255927956579971e-01  8.7255927956719359e-01  8.7255927956896651e-01  8.7255927957122248e-01  8.7255927957406865e-01  8.7255927957758306e-01  8.7255927958175417e-01  8.7255927958636548e-01  8.7255927959081814e-01  8.7255927959387891e-01  8.7255927959344715e-01  8.7255927958648116e-01  8.7255927957014123e-01  8.7255927954394197e-01  8.7255927952240131e-01  8.5589261286640395e-01  8.5589261286645280e-01  8.5589261286670892e-01  8.5589261286715024e-01  8.5589261286776153e-01  8.5589261286852769e-01  8.5589261286943286e-01  8.5589261287045859e-01  8.5589261287158513e-01  8.5589261287279184e-01  8.5589261287405816e-01  8.5589261287536234e-01  8.5589261287668594e-01  8.5589261287800911e-01  8.5589261287931573e-01  8.5589261288058971e-01  8.5589261288181995e-01  8.5589261288299590e-01  8.5589261288410923e-01  8.5589261288515461e-01  8.5589261288612872e-01  8.5589261288703056e-01  8.5589261288786000e-01  8.5589261288861918e-01  8.5589261288931195e-01  8.5589261288994201e-01  8.5589261289051433e-01  8.5589261289103624e-01  8.5589261289151208e-01  8.5589261289194918e-01  8.5589261289235430e-01  8.5589261289273366e-01  8.5589261289309448e-01  8.5589261289344376e-01  8.5589261289378771e-01  8.5589261289413399e-01  8.5589261289449103e-01  8.5589261289486751e-01  8.5589261289527307e-01  8.5589261289572127e-01  8.5589261289622676e-01  8.5589261289681018e-01  8.5589261289749841e-01  8.5589261289832808e-01  8.5589261289934804e-01  8.5589261290062535e-01  8.5589261290224894e-01  8.5589261290433605e-01  8.5589261290703333e-01  8.5589261291051222e-01  8.5589261291494745e-01  8.5589261292046448e-01  8.5589261292702434e-01  8.5589261293422136e-01  8.5589261294094976e-01  8.5589261294492847e-01  8.5589261294224195e-01  8.5589261292716046e-01  8.5589261289410934e-01  8.5589261284162377e-01  8.5589261279454054e-01  8.3922594617131929e-01  8.3922594617141877e-01  8.3922594617198676e-01  8.3922594617296775e-01  8.3922594617432389e-01  8.3922594617602220e-01  8.3922594617802526e-01  8.3922594618029200e-01  8.3922594618277668e-01  8.3922594618543334e-01  8.3922594618821345e-01  8.3922594619107105e-01  8.3922594619396007e-01  8.3922594619683932e-01  8.3922594619967039e-01  8.3922594620242008e-01  8.3922594620506097e-01  8.3922594620757074e-01  8.3922594620993129e-01  8.3922594621213142e-01  8.3922594621416446e-01  8.3922594621602820e-01  8.3922594621772362e-01  8.3922594621925617e-01  8.3922594622063351e-01  8.3922594622186608e-01  8.3922594622296465e-01  8.3922594622394331e-01  8.3922594622481506e-01  8.3922594622559321e-01  8.3922594622629298e-01  8.3922594622692781e-01  8.3922594622751256e-01  8.3922594622806035e-01  8.3922594622858449e-01  8.3922594622909974e-01  8.3922594622962132e-01  8.3922594623016500e-01  8.3922594623074853e-01  8.3922594623139513e-01  8.3922594623212954e-01  8.3922594623298741e-01  8.3922594623401403e-01  8.3922594623526980e-01  8.3922594623683699e-01  8.3922594623882696e-01  8.3922594624138835e-01  8.3922594624471580e-01  8.3922594624905278e-01  8.3922594625468172e-01  8.3922594626188651e-01  8.3922594627085445e-01  8.3922594628147418e-01  8.3922594629296510e-01  8.3922594630327085e-01  8.3922594630818592e-01  8.3922594630049663e-01  8.3922594626961511e-01  8.3922594620500013e-01  8.3922594610332746e-01  8.3922594600685818e-01  8.2255927943591567e-01  8.2255927943612961e-01  8.2255927943744300e-01  8.2255927943971696e-01  8.2255927944286011e-01  8.2255927944679397e-01  8.2255927945143159e-01  8.2255927945667606e-01  8.2255927946242247e-01  8.2255927946855989e-01  8.2255927947497776e-01  8.2255927948156560e-01  8.2255927948821783e-01  8.2255927949483676e-01  8.2255927950133234e-01  8.2255927950762753e-01  8.2255927951365748e-01  8.2255927951936991e-01  8.2255927952472463e-01  8.2255927952969521e-01  8.2255927953426644e-01  8.2255927953843333e-01  8.2255927954220043e-01  8.2255927954558050e-01  8.2255927954859132e-01  8.2255927955125741e-01  8.2255927955360619e-01  8.2255927955566677e-01  8.2255927955747110e-01  8.2255927955905062e-01  8.2255927956043762e-01  8.2255927956166341e-01  8.2255927956275876e-01  8.2255927956375408e-01  8.2255927956467789e-01  8.2255927956556008e-01  8.225592795664312