<?xml version="1.0"?>
<VTKFile type="UnstructuredGrid"  version="0.1"  >
<UnstructuredGrid>
<Piece  NumberOfPoints="5028" NumberOfCells="9798">
<Points>
<DataArray  type="Float64"  NumberOfComponents="3"  format="ascii">0 1 0  0 0 0  1 0 0  1 1 0  0.5 1 0  0.5 0 0  0 0.5 0  1 0.5 0  0.5 0.5 0  0 0.25 0  0.25 0 0  0.25 1 0  0 0.75 0  1 0.25 0  0.75 0 0  1 0.75 0  0.75 1 0  0.7083333333333333 0.2916666666666667 0  0.2916666666666666 0.7083333333333334 0  0.375 0.25 0  0.75 0.625 0  0.2569444444444444 0.4652777777777778 0  0.5366379310344828 0.7535919540229885 0  0.1875 0.1875 0  0.8125 0.8125 0  0.869047619047619 0.375 0  0.1450441919191919 0.6052714646464646 0  0.375 0.8690476190476191 0  0.5526960784313725 0.1825980392156862 0  0.8385416666666666 0.1614583333333334 0  0.1614583333333333 0.8385416666666667 0  0.6736111111111112 0.4652777777777778 0  0.1367521367521368 0.3477564102564102 0  0.6570970491253563 0.8648656830417855 0  0.5102479397556124 0.3386260301221938 0  0.3654513888888889 0.5737847222222222 0  0.6929750044954185 0.1362784921584263 0  0.388576102743835 0.411911725237599 0  0.6091269841269842 0.5942460317460317 0  0.875 0.6875 0  0.427278890279516 0.119889445139758 0  0.8544456845238095 0.5213913690476191 0  0.125 0 0  0 0.125 0  1 0.875 0  0.875 1 0  0.1280008648150532 0.4769292340226777 0  0.2695382451711197 0.3321750950221553 0  0.7031567235715964 0.7447810921428012 0  0.625 0 0  0.375 0 0  0.125 1 0  0.875 0 0  0 0.375 0  0 0.625 0  1 0.375 0  0.375 1 0  1 0.125 0  0 0.875 0  0.625 1 0  1 0.625 0  0.2979288363930608 0.1201429454643536 0  0.410919540229885 0.7484605911330049 0  0.5325041980395562 0.878905151526474 0  0.4831670727569156 0.6331060043826487 0  0.1735997378973042 0.7204747378973043 0  0.2534919507575758 0.5772372159090909 0  0.2633928571428572 0.8876488095238095 0  0.8199404761904761 0.2730654761904762 0  0.75830270586982 0.3919383189517417 0  0.5750282248382511 0.4237522353023667 0  0.6008360210023379 0.2794828358598495 0  0.08163442644334186 0.6821295860397322 0  0.08333333333333333 0.1875 0  0.2028380815996574 0.08844602719988583 0  0.2766521142611967 0.2325436572164097 0  0.90625 0.78125 0  0.890625 0.890625 0  0.7545696325008384 0.8973565441669461 0  0.5625 0.08086590340834317 0  0.09077380952380953 0.09077380952380952 0  0.4610923478694773 0.209034015149656 0  0.7542527598351648 0.5248380520595106 0  0.6459235536037465 0.3619913988405765 0  0.7560381768882634 0.20506142233852 0  0.07073252688172042 0.8125 0  0.0924753097241701 0.9078102849914793 0  0.9292674731182795 0.1875 0  0.9075246902758297 0.09218971500852073 0  0.8125 0.07073252688172045 0  0.2400955776842301 0.7869705776842302 0  0.9121050213379069 0.2781978201831695 0  0.7916878157143976 0.7239689078571988 0  0.9345238095238094 0.4375 0  0.4375 0.9345238095238095 0  0.3725616989755203 0.6651895248862173 0  0.06536271996350887 0.5625 0  0.9348362560379583 0.5625 0  0.456646798987055 0.8277247094351965 0  0.1875 0.9355758238725954 0  0.6169761231634859 0.6939779188977889 0  0.6226854751147515 0.7827911461419014 0  0.3305695598137626 0.7901697871282585 0  0.5865305325818898 0.5101085479043448 0  0.6622701297028378 0.2177663989757395 0  0.1354166666666667 0.2591702279202279 0  0 0.3125 0  0.2094429575680048 0.3936361846162499 0  0.836666296419157 0.607917407161686 0  0.6875 1 0  0.214261555450504 0.6492551722020035 0  0 0.4375 0  0.07731537126068377 0.40625 0  0.3427725432967068 0.4879566233699599 0  0.3550792513951871 0.3331953632609953 0  0.4462473953896857 0.2887834789342508 0  0.4747801464819794 0.417386052030127 0  0.8229836475148948 0.4443292349237342 0  0.7322605135514757 0.8199240278289671 0  0.6756431877205955 0.5468989748126787 0  0.1968419507215863 0.5194573482612496 0  0.3285590277777778 0.9345238095238095 0  0.8125 1 0  0.4198917601920009 0.5134893045331258 0  0.5232405503206691 0.2595791787880157 0  1 0.9375 0  0.1987510870015086 0.3025185951894431 0  0.5625 1 0  0.6005390654136388 0.9228110509230952 0  0.6411254848194414 0.07704872765442942 0  0.3357233162523242 0.1855113224530532 0  0.6730653396610877 0.6393887462324165 0  0.310966987234063 0.6240019765311626 0  0.7368737836204349 0.07457755202327881 0  0.6192316414418171 0.1485238406378594 0  0.5432429670607106 0.678552703844006 0  0.4754371679695679 0.7103946803120881 0  0.07501324890749672 0.3043839897335739 0  0.5358146975860403 0.5688321463205916 0  0.3115271739500156 0.3982137365971444 0  0.3625191397122174 0.0767854603650549 0  0.5024029442563831 0.1264128223758444 0  0.4375 0 0  0.4699946908887376 0.06379961173775725 0  0.9375 0.71875 0  0.9272105898044465 0.635671179608893 0  0.9375 1 0  0.6690971819568612 0.9331530898202766 0  0.1073454944778885 0.7499206387638554 0  0.8699082999280406 0.2232403652524313 0  0.5773118091863964 0.3548027349159383 0  0.1354166666666667 0.1428571428571428 0  0.3125 0 0  0.8241684193077341 0.9257452995055244 0  0.4352314948354036 0.3586940847489378 0  0.4351301473778832 0.5819726043539077 0  0.8073232928518163 0.3419398170341962 0  0.7775949246947366 0.1298519409204575 0  0.6875 0 0  0.7413513991851041 0.457933324954483 0  0.939453125 0.841796875 0  0.5630355154606987 0.8171875156478349 0  0.9345238095238095 0.3461466592368577 0  0.9375 0 0  1 0.0625 0  0.0625 1 0  0 0.9375 0  0.06552178593177167 0.4969053669623468 0  0.1424866619031703 0.4130277709291224 0  0.1275287182444726 0.5422946908002588 0  0.2637686595586339 0.06413888464529549 0  0.2524263535491086 0.1697437503243817 0  0.7367218397988525 0.6888573970660841 0  0.0625 0 0  0 0.0625 0  0.8463594539285995 0.7578283617857982 0  0.3128751192101563 0.2851997374369947 0  0.4015281788351144 0.1806421385113692 0  0.1910251795116588 0.4553332197174453 0  0.287797471442006 0.5222621440543902 0  0.3962628745986055 0.8097380085535307 0  0.3505895299554843 0.7304878890838692 0  0.5019151500495276 0.9356042615328103 0  0.9374389419410134 0.4999931039076005 0  0.3125 1 0  0.1875 1 0  1 0.5625 0  0.4375 1 0  1 0.3125 0  1 0.4375 0  0.8125 0 0  1 0.1875 0  0.5625 0 0  0.1875 0 0  0 0.1875 0  0 0.5625 0  0 0.6875 0  0 0.8125 0  1 0.6875 0  1 0.8125 0  0.8021696218581627 0.6612893947866073 0  0.06154922295426143 0.6239401126946708 0  0.9359375 0.9359375 0  0.4666158024849896 0.7691515918155014 0  0.2318201265217025 0.7064974250277525 0  0.1565954253579966 0.6635489312486841 0  0.1598132503680848 0.7787147500325552 0  0.3146529991605639 0.8510876378205265 0  0.1461873209418733 0.05982804528877814 0  0.06109554988524315 0.2446551776247686 0  0.8054950308560754 0.5564226538848541 0  0.470541749491976 0.8853316336952531 0  0.6948472567465137 0.4042308563372457 0  0.8802828472348889 0.4658893256343853 0  0.6788075634946739 0.7974194205806069 0  0.2155048659603867 0.2428201584940968 0  0.8131223143423806 0.2132171049028394 0  0.4330798005432235 0.6671274900735726 0  0.6015279126162613 0.2187368078743274 0  0.8061636571464289 0.8703766630361714 0  0.7008230445061776 0.3478568388444072 0  0.8638466246958771 0.3147095987735538 0  0.204801534004265 0.8789209409594009 0  0.2449006736431132 0.9424182882803838 0  0.7611268409371427 0.2643056884799992 0  0.7552800864046191 0.7678006649959446 0  0.5983639638906616 0.864113435029236 0  0.1956559506814437 0.577281203577426 0  0.3527670268164207 0.1320469097565204 0  0.7530364577483248 0.3262386077083089 0  0.4535919187979363 0.4690107087451527 0  0.8824869791666666 0.8336588541666666 0  0.8814453125 0.9451171875 0  0.5582987942628019 0.622421666543858 0  0.6817532446064828 0.6939001801354731 0  0.3830295138888889 0.9450968952922078 0  0.4140603937012541 0.05211333372716105 0  0.5535864501303013 0.3060591985391672 0  0.6560130086346878 0.2729726562211558 0  0.890203140221684 0.5948314305427268 0  0.7043857725999024 0.593980890020804 0  0.5105843922695152 0.8016828014338627 0  0.05365910753708378 0.7315110031682004 0  0.616904573672261 0.4621186633436136 0  0.5338511646455415 0.387875898899613 0  0.5231769258947843 0.4477682463140762 0  0.650302973237622 0.7370722302085519 0  0.3927483139621257 0.4662414504529014 0  0.8034595960585199 0.4972538342758211 0  0.7738337841682438 0.9496376207663251 0  0.7193737507158268 0.954685447650112 0  0.482525916480686 0.5528257169991676 0  0.2533501157346781 0.2809495420003238 0  0.3118487924482243 0.5702930126570319 0  0.6257598847669529 0.4104163315430518 0  0.1354166666666667 0.1955605158730158 0  0.04166666666666666 0.15625 0  0.3956448985530264 0.6174149462065157 0  0.8102897701818546 0.3938784238208349 0  0.2641154190013625 0.8344469561943118 0  0.642852220770013 0.5068794586563659 0  0.05271458179508221 0.355846947336007 0  0.7021551360070266 0.8921457280225779 0  0.5692125776683765 0.1328512638850284 0  0.5206162811937602 0.04865158770992991 0  0.6001838442201555 0.04540556991297563 0  0.2597716608242787 0.4118346398477178 0  0.4040584599473195 0.3179589136784675 0  0.1480337679295207 0.8941560631483065 0  0.1344356707112281 0.9466251177415842 0  0.7114696411829317 0.4983917389078826 0  0.7585704698442475 0.5751926345944629 0  0.2189131956390871 0.04022068508159698 0  0.2476935455192043 0.1123642267635843 0  0.185995005654517 0.1365524537205238 0  0.6223414373308711 0.643380839165121 0  0.5732602596637543 0.7190051747306219 0  0.268358222364537 0.6586246524467934 0  0.3265879848129173 0.2369791782191225 0  0.1267095595787346 0.7034787238999181 0  0.1115202922226038 0.6421997933884982 0  0.3128688392940203 0.07260997451790079 0  0.550724900485678 0.9253360991633187 0  0.7142608810459105 0.2384904702214873 0  0.7045869185243887 0.1871826897887429 0  0.890625 0.734375 0  0.953125 0.765625 0  0.2111812642821677 0.8286209446459138 0  0.9590293078204457 0.09375 0  0.953431269039847 0.1435719386408004 0  0.04097069217955424 0.90625 0  0.04656873096015299 0.8564280613591996 0  0.1078743037981226 0.8541621766048062 0  0.8921256962018773 0.1458378233951939 0  0.8521576979194619 0.1084496634207678 0  0.8655663982740958 0.05464346096571447 0  0.04005659640905543 0.09375 0  0.1001448316533417 0.04246776244228261 
[...]
<PointData  Scalars="f_14-2"> 
<DataArray  type="Float64"  Name="f_14-2"  format="ascii">0.0000000000000000e+00  2.7108912787973066e-01  9.9230462759730687e-01  5.6354276752610608e-03  0.0000000000000000e+00  3.9553105910748204e-01  1.4079579569334319e-01  4.9862033480753287e-01  2.2633268823489466e-01  2.2721032426128171e-01  3.0018216310091678e-01  0.0000000000000000e+00  5.7289126506708490e-02  7.4791415088753810e-01  5.8576073815075713e-01  2.4942699804050628e-01  1.2460746227331897e-01  4.4162394662113719e-01  8.9739686722726780e-02  2.8772747138204252e-01  2.5896746844436186e-01  1.7598054915704750e-01  1.2813261810305715e-01  2.5989509544651107e-01  1.7276840461719431e-01  5.0640942160061742e-01  1.0943578113482395e-01  4.5669494229497704e-02  3.9066626684159367e-01  6.3232391200528049e-01  3.6461806302825021e-02  3.1893667071802267e-01  2.0250315176963729e-01  1.2720773432749841e-01  3.0544710748553378e-01  1.5509264741459303e-01  5.0437729482270421e-01  2.2877187335017801e-01  2.2107595589682949e-01  2.6334244852232180e-01  3.4546299067442116e-01  3.8025808228703867e-01  2.7828681134303263e-01  2.5853503400211753e-01  1.2517430515646322e-01  1.1067682261148304e-01  1.5460789049414966e-01  2.2934073327647334e-01  1.8114602965109938e-01  4.7583343515379267e-01  3.3834638757291052e-01  0.0000000000000000e+00  7.3797318413775126e-01  1.8574666252573896e-01  9.6913939644113226e-02  6.2329911033656049e-01  0.0000000000000000e+00  8.7234660869820491e-01  2.4314778168224166e-02  9.9202554306026106e-02  3.7396839662243919e-01  2.9991948320295225e-01  9.6863532756318038e-02  8.2824474003927076e-02  1.6135971264587884e-01  7.2574853809595385e-02  1.3226510125897917e-01  2.8322038260335226e-02  5.4161241180640662e-01  4.1361934151774521e-01  2.9379964954508014e-01  3.7878595327683834e-01  7.9684898454502356e-02  2.4768712687751490e-01  2.8326857708608966e-01  2.6507544631680419e-01  2.0193757819712865e-01  1.3400376818530907e-01  1.3720821539843550e-01  4.2438660189369271e-01  2.6801329194114992e-01  3.3518061671048816e-01  3.2339497095589165e-01  3.6265546581159480e-01  5.2729380680869853e-01  4.0548666440498225e-02  1.7596732417631003e-02  7.1933382913718624e-01  7.5855161906918045e-01  6.4402735811022072e-01  5.6956523437206863e-02  6.2481461675814476e-01  2.1532489784683509e-01  5.0552488760012149e-01  3.0747849002214181e-02  1.2035629522711724e-01  1.1976653766548835e-01  3.9377706499086335e-01  7.8013862179738269e-02  1.3103919673332552e-02  1.7708163949276121e-01  1.4321969197979370e-01  6.6707326649684276e-02  2.5462874858332751e-01  4.4700337902074089e-01  2.3202284688948682e-01  2.0729807151555762e-01  1.9535527446257472e-01  3.0625079270725070e-01  1.1642424732231241e-01  1.0063742910843931e-01  1.6338469939945349e-01  1.7683422930866682e-01  1.8487705623898015e-01  2.5074552902151431e-01  2.9953126353550302e-01  2.5528113426042609e-01  4.1926043323385986e-01  1.5761870067399725e-01  2.7302877977819490e-01  1.4610414229620544e-01  1.8638031448715783e-02  1.2331969335993016e-01  1.9451152179680647e-01  3.4566930752360470e-01  6.3441016837885167e-02  2.2648237526564025e-01  7.0083761661005675e-02  9.7240334402354883e-02  4.7980353501424960e-01  2.9528113925022181e-01  2.2204834945013263e-01  1.2408833002428017e-01  5.6284368167350018e-01  4.4423783208645895e-01  1.6023838940088264e-01  1.2752247591507726e-01  2.1227006991687120e-01  2.0677144893003449e-01  2.1367743892222768e-01  3.2792101611962166e-01  3.7972246294668321e-01  3.6435959709657773e-01  3.7534539315775506e-01  2.5851865341179497e-01  3.2562382374719884e-01  8.0561811242429712e-02  1.1678700606759737e-01  5.9508567350079325e-02  6.2483155067712171e-01  3.2958549370284335e-01  2.6312558663106955e-01  3.1711090709019990e-01  1.3084846068489203e-01  2.6660256159544382e-01  1.6942344386211336e-01  4.8284916254782329e-01  5.8425778339766998e-01  5.2656865660183028e-01  3.5989600458007392e-01  1.5874805401196398e-01  1.1323465780427099e-01  5.8754101469159492e-01  8.4056266332625462e-01  9.3425890813526358e-01  0.0000000000000000e+00  1.0969358193178624e-02  1.4332386462729338e-01  1.7953192336391577e-01  1.3061629001992212e-01  2.9970924131421739e-01  2.7715215404750920e-01  2.1824364438834529e-01  2.7293888752764017e-01  2.6777391300004227e-01  2.0791603948593521e-01  2.5673408931570224e-01  3.1941843353700278e-01  1.6951034278557289e-01  1.5935593002692711e-01  7.1006132106440439e-02  9.1381164576558094e-02  4.9997229527262529e-02  4.5146459067849837e-01  0.0000000000000000e+00  0.0000000000000000e+00  4.3627466242305196e-01  0.0000000000000000e+00  6.8561669184406404e-01  5.6093707306417051e-01  6.5522264490570470e-01  8.1018250551635251e-01  4.3248535654541281e-01  2.8732321125278976e-01  2.4464604495643286e-01  1.1849790177465171e-01  7.6411866863624098e-02  3.9822453563415454e-02  3.1168251489660831e-01  1.8723988364302163e-01  2.5624959945478326e-01  9.8298598873015522e-02  9.8686989378466011e-02  1.0250390018975399e-01  8.2679619114592692e-02  9.0154570774901896e-02  5.3495121431289760e-02  4.3972994674540217e-02  2.7777666947013319e-01  2.3040467732582856e-01  3.2795492584131286e-01  5.9820374058147469e-02  3.6663448402289600e-01  4.4094003810777233e-01  1.5359234715103451e-01  2.4890980774502794e-01  5.7485478370249732e-01  1.3368800791399002e-01  4.0618832787546916e-01  1.4802270527945066e-01  4.0392055874337762e-01  5.4972843558095352e-01  2.7579735892721547e-02  1.2897858472543194e-02  4.9759758592840925e-01  1.8392218659697060e-01  1.1008499216291193e-01  1.2447451430193684e-01  3.1430565812882644e-01  4.5280934534727985e-01  2.2452307392774185e-01  1.6551689695747054e-01  1.1571699158406197e-01  1.8971822557789472e-01  1.9805137905788051e-01  1.9115349972875218e-02  3.5109683006709719e-01  3.4080407537830582e-01  4.1602202026619001e-01  3.4162311565570613e-01  2.5860721180233726e-01  1.0262460139327281e-01  6.3373078977504091e-02  2.9308207821255894e-01  2.9299086940639341e-01  2.5976375763768345e-01  1.6909992281049172e-01  2.0698131694514812e-01  3.6867673034314441e-01  1.2852139678126517e-01  1.2389533154153526e-01  1.9628477695112914e-01  2.4398588465482282e-01  1.4507562921512693e-01  3.2536689895998006e-01  2.5048803755418875e-01  2.5291220567448480e-01  1.4450888816544796e-01  4.4772765005293119e-01  4.4254331344968145e-02  2.8068157308291830e-01  1.9357506535060451e-01  1.3099165484767022e-01  4.1625230098361121e-01  4.0418325364887786e-01  4.5496962283634579e-01  1.9723862084934232e-01  2.7231178719236876e-01  2.1776107955603113e-02  9.9185673539866088e-03  3.1837753166192201e-01  2.9319018405474734e-01  2.9177563284818131e-01  2.8863498102907587e-01  2.7169269343751296e-01  2.0200183184160439e-01  1.5276770729137118e-01  1.0424882460837165e-01  2.7692934690184978e-01  7.4945894304684943e-02  9.4345281863636027e-02  3.1218246439835595e-01  7.5960742027735603e-02  4.7524343526808804e-01  4.9301332479610177e-01  2.3330191063119574e-01  2.2232056976871101e-01  4.1957639773570685e-02  8.3569876142250799e-01  7.8708242780171012e-01  1.7464659774587884e-02  2.8929106102571461e-02  3.0551792852482985e-02  7.0458615030861216e-01  6.7667832040249631e-01  7.1577206806297344e-01  2.6458680762765047e-01  2.7412354568355735e-01  8.2253811982760971e-01  7.5600300631302160e-03  4.6737612744342565e-02  2.7027827374409957e-01  5.1644179910435373e-01  3.6475404764217612e-01  3.4262438797176425e-01  3.1085859693736539e-01  4.6143679281177824e-02  2.4117903880216915e-01  1.9192724386206833e-01  2.5916541360501077e-01  6.9782870740125114e-01  6.0653086823046998e-01  4.9828581496150937e-02  6.4577850850776308e-01  1.2141642972011964e-01  6.2819908916217873e-02  7.0604973760826847e-02  3.6455180003946130e-01  2.9845602904486596e-01  4.6583397824322947e-01  2.4805795842764661e-01  5.3552539008048694e-01  2.0777785643956123e-01  1.0787157897113905e-01  1.0383829494302578e-01  5.8800736793701158e-01  3.2593853157286190e-01  4.8724493077528691e-01  8.2066891259965816e-02  1.6017454105174611e-01  5.6325274666047109e-01  2.1800891142693277e-01  4.4641477587124395e-01  1.5629730024536156e-01  2.4176637761101555e-01  1.9306649052268490e-01  1.3298266067676304e-01  5.8069195476535129e-01  8.0533569886497319e-02  5.6737167154684860e-02  2.1402666409051745e-02  1.1484253870447714e-01  1.2993679326732158e-01  3.8479082549024102e-01  4.0132675600292961e-01  2.1048244901128457e-01  4.9846010286749054e-01  3.9704587848919842e-01  1.5104257029017720e-01  5.5312617604885728e-01  3.2624969496900441e-01  1.2944086327535032e-01  2.6625678217018645e-01  9.8533718190161775e-03  1.6557435684626651e-01  2.4568144217363538e-01  2.3818077273356519e-01  2.1614731519959440e-01  8.6763217162920167e-02  1.5243709093432439e-01  4.4250082732100443e-01  5.0413377614581711e-01  5.3345378191419747e-02  6.8301496482890012e-03  6.4353264764092546e-02  3.4354992850460681e-01  2.8746475400547417e-01  3.7592284833737816e-01  1.2048804920422168e-01  1.4302649905506773e-01  2.3083171331274449e-01  1.0876055732623645e-01  1.4891328894801320e-01  1.8113610390339663e-01  2.2943669258090205e-01  2.7330387514172338e-01  2.7739893919949432e-01  8.8089736168940488e-02  2.1070018564112047e-01  2.4092480107742681e-01  2.6762204815031854e-01  2.4828434430389590e-01  4.9544216994218554e-01  2.8954336686478738e-01  1.1679207904913098e-01  1.5222825138141974e-01  5.3548477302359121e-01  1.3588317458332302e-01  2.8121496864052259e-01  3.5046760323765092e-01  3.2511473928633106e-01  3.1936586531094457e-01  3.3300118169539719e-02  1.9248770462213649e-01  2.2907112865501972e-01  1.8808396767182456e-01  2.2395638512622576e-01  2.8531472623617438e-01  2.4108276310889340e-01  1.7929438844276230e-01  4.0540868738693453e-01  4.6199833368723625e-01  1.8298751217849152e-01  4.0317430653069192e-01  1.0409264754142797e-01  1.1518844739570838e-01  2.1945578648940003e-01  9.0470519669551608e-01  8.6319891925918782e-02  1.0848908700723436e-01  2.6384244240833971e-01  5.9608728746874763e-02  2.3608254657800823e-01  1.8335587922831276e-01  1.8187563603690549e-01  0.0000000000000000e+00  2.2532550601454057e-01  2.0875988332100795e-01  1.7360210880220950e-01  8.7168821076998165e-02  2.9187467151781588e-01  2.8915131555677825e-01  2.0261067654954007e-01  1.1231331097370893e-01  1.5372913744327021e-01  1.3970842821531096e-01  7.0363110914664267e-02  1.5399560411145935e-01  2.2228041840076157e-01  1.7000705890302398e-01  1.6894980199482543e-01  3.0813537651594863e-01  6.5796544574972360e-01  1.7607179900617073e-01  2.1172748337432025e-02  9.3011859127074530e-03  3.9859896696937269e-01  5.7239752389331836e-02  4.2883291240217958e-01  3.1119729990545275e-01  6.5294285953557063e-01  4.8386260139166981e-01  7.4982559960578982e-02  2.4675343666891736e-01  5.4158696664824824e-01  9.8239890784623807e-02  2.1950156136719354e-01  1.9841576856741019e-01  3.6298308117973088e-01  3.3147672754935326e-01  7.8617023172381439e-01  1.4247832283579254e-01  1.6509791901810825e-01  9.3660104989636797e-02  6.2934830441576972e-01  1.8942488502502125e-01  5.5378275172629321e-01  0.0000000000000000e+00  2.2240634126563941e-01  1.8831179829598377e-01  2.0559059614194738e-01  4.1537280323104780e-01  1.4086107863444211e-01  1.3224294930022337e-01  3.1202488244569549e-02  1.9261882012869644e-01  6.9469207221034912e-01  6.7502188222801407e-01  4.3407646465936789e-01  5.9947557365483350e-01  2.9334851818069602e-01  2.9947015359985196e-01  3.6637141473480561e-01  3.8744903230206612e-01  1.3819082328338786e-01  1.1950595119848789e-01  1.6643791427687868e-01  2.8398037629853856e-01  0.0000000000000000e+00  1.2981320568902815e-01  1.3489355605947453e-01  2.1319956769777382e-02  1.6502800747774268e-01  1.0901468859999239e-01  4.1652998791225976e-01  3.5635083162678005e-01  1.7479421446059568e-01  2.7143962492318696e-01  3.5229548604581155e-02  1.2665046432475821e-01  1.1885948027380597e-01  2.7946437852703720e-01  3.3581244444730718e-01  6.5445407966658309e-01  3.5930439768629441e-01  3.5392979644393646e-01  1.4159448935964192e-01  5.4590194516107880e-02  1.6651827850033696e-01  5.3681609733811120e-01  3.1931222764842726e-01  2.4358986377135147e-01  2.8234611332731291e-01  7.7907248765198334e-01  7.4927709826296474e-01  1.4687065707221055e-02  3.3766757121561553e-01  6.8402657501884651e-02  6.5222886599034816e-02  3.9922624785627892e-01  1.2629726969741853e-01  3.2859201773055485e-01  9.6026098893603001e-02  1.8198519538247954e-01  3.8629473967537076e-01  6.6659274398602017e-02  5.0784427222084851e-02  6.0408126619743629e-03  6.9122492290734396e-03  3.6716461841980391e-01  3.1254701668279766e-01  2.4617167454336758e-01  6.0156553592874418e-01  3.2141678689172309e-02  7.8090916353174319e-02  3.4964306775298143e-01  3.8077555392204643e-01  2.4269513451360400e-01  1.0355761099057352e-01  4.0147253281228895e-02  2.3266120136138277e-01  5.8109856657895431e-01  3.8803552407284764e-01  3.1809539500554918e-01  2.8848105160204590e-01  7.1678369619857707e-01  4.8540191923672588e-01  5.2063387887233326e-01  4.4732999277760288e-01  2.3015826548767790e-01  2.5437669088516984e-01  2.2859464265479576e-01  2.9069842291028297e-01  9.6468232000002985e-01  6.2342157453176707e-02  1.6697168065401316e-01  1.6859419425887437e-01  3.5123471153979413e-01  1.1723511512739287e-01  1.2049785304992212e-01  1.5979562963299679e-01  7.6462124477584104e-01  3.0048535508749025e-01  1.4282063259424055e-01  1.4902981789437028e-01  3.1305859710981881e-01  3.0851174810383386e-01  7.5768601010878367e-01  2.4969844938129111e-02  1.1839919979803780e-01  1.2763447393035601e-01  3.1096728394736339e-01  2.3207067570642537e-01  3.1716320064307892e-02  2.6239466013760598e-01  2.5533393530650883e-01  2.6779821570635259e-01  1.0725423546094134e-01  8.8718443338387176e-01  2.3995770030223740e-01  1.9667177186327758e-01  6.1521833873178267e-01  6.9073068389831038e-01  1.1970470798562444e-02  4.4545639250006058e-01  3.6042572074428181e-01  1.0378238536153032e-01  9.2931840232034615e-02  2.0042229914309159e-01  1.2952101853672593e-01  1.7500184165261748e-01  2.0500168192313023e-01  1.1706069929008334e-01  1.4876033187763932e-01  4.3233247966620275e-01  6.0718253644425613e-01  1.6525135928199125e-01  3.8881382559827482e-01  2.1831501775306825e-01  2.8032673940103453e-01  2.1452070129118025e-01  1.8232617971918524e-01  1.4626296755684848e-01  1.8333908746389269e-01  1.4351513218865378e-01  2.7037129179674907e-01  3.2628366167871736e-01  3.7354917276301020e-01  4.2941020851280620e-01  1.2835756374125404e-01  2.9132715945814974e-01  2.9947925525398689e-01  3.0164049476034249e-01  5.3530948309360393e-01  5.9212617715270832e-01  1.9190418651455504e-01  2.8157742351510451e-01  1.2018220096584127e-01  1.3730691481927024e-01  2.6004615248297897e-01  1.9881419511122081e-01  4.6949822205556963e-01  3.5071954724200016e-01  6.7090782977273933e-01  2.0938699946314948e-01  1.7318704074755142e-01  1.7030635971226746e-01  1.3981574734831803e-01  2.1845147889544994e-01  3.5662717220501461e-01  3.8561625275309389e-02  6.8381006271587719e-02  2.7158021749289218e-01  2.7021904742024511e-01  1.8799905465116340e-01  4.1324564773376798e-01  1.1989264891088122e-01  2.6862905138742399e-01  8.4128725752577360e-01  3.1804941741008189e-02  6.1247003771775288e-01  2.4371651448968393e-01  2.5605811393619698e-01  2.7997429773213828e-01  4.0931078091115275e-01  2.4160712823043221e-01  3.7670214590710516e-01  1.2524096782258604e-01  2.7805015463895161e-01  2.7300858721072996e-01  3.3989256172165566e-01  4.4240664173060457e-01  7.5040423674637180e-01  8.3651755061856264e-02  3.6995591082202595e-01  7.4978759933590211e-02  3.7196524499884881e-01  5.5155165196189855e-02  4.4973217830970254e-02  9.3397776339052108e-02  8.8961835496411637e-02  1.6121636693109578e-01  5.2254674326420925e-01  2.2081989665930113e-01  7.8293329089394084e-02  4.2253333817059152e-01  4.7303877783764714e-01  3.2545086961960082e-02  7.3858201368968912e-01  1.4121876395114380e-01  7.2540221765899776e-02  3.5619670857329444e-01  3.7923876712258603e-01  9.8442783212426832e-02  8.6509683047535479e-02  1.1867603739208142e-01  5.1797854629668481e-03  0.0000000000000000e+00  4.6946584355549568e-02  8.6506339112482622e-02  0.0000000000000000e+00  3.4281123259242419e-01  5.5502407412416399e-01  5.0023507057525918e-01  5.2978915792339076e-01  4.6745193254943573e-01  4.0512076379133644e-01  1.7462859508364531e-01  1.5207515299852420e-01  1.2955850518054821e-01  2.1749553267506663e-01  3.2714299162086802e-01  4.8327432755648665e-02  6.1906904730816870e-01  0.0000000000000000e+00  2.7518054216411797e-01  1.7343963397432799e-02  9.0334997459597155e-01  2.9324460299894423e-01  4.5331949349108780e-01  2.6379019031353657e-01  2.5207794176104414e-01  1.2164360244809168e-01  0.0000000000000000e+00  9.4215713223536487e-02  3.2932917090624347e-02  5.3761886209995710e-02  1.0757362917920231e-01  2.3629738686639451e-01  0.0000000000000000e+00  2.8054341243449843e-01  1.5616897779174113e-01  4.7653615914839276e-01  7.1770880693040467e-02  1.3300198828977050e-01  8.0906185500984207e-03  3.8610332255826646e-01  3.3528106622640899e-02  2.3898241493794808e-01  2.5569102814274797e-01  2.5718542785070075e-01  2.5847776163816261e-01  2.8405672256063580e-01  2.3207978003699706e-01  4.3985718634061977e-02  1.0892369596036612e-01  9.0186988940113053e-02  9.8150965611837490e-02  1.3082265866127560e-01  2.2114117465770750e-01  2.3939610800594496e-01  4.7449445639276444e-01  2.6446083010634125e-01  4.1099991657354767e-01  2.3170253335549476e-01  4.1240164667269230e-01  1.0318396103746266e-01  2.1572625195145992e-01  1.9108867910949928e-01  2.0478486999195231e-01  1.6533115031182838e-01  4.0199287029413788e-01  6.8737018962737331e-02  1.9929515857599187e-01  2.0121901920745192e-01  7.6525580652317793e-01  5.6081995818350905e-01  5.1714884773003911e-01  2.0721861827201377e-01  1.0398853165738701e-01  5.2564560987753794e-01  5.8647063379616893e-01  1.3742902381660502e-01  3.4104570563637560e-01  2.7485519317770613e-01  1.1891197266671433e-01  2.9538080491394680e-01  2.9979153868346942e-01  9.4933886904778747e-02  9.2325812356919432e-02  3.1834141875312372e-01  3.5757042869815236e-01  3.1171633856019426e-01  3.7236919504028583e-02  1.1921539119340391e-01  8.8870588381088148e-02  7.7781272180106747e-02  5.5970404617886549e-02  6.2808126447504498e-02  8.4108312801910848e-02  3.1489702874865400e-01  1.4315968801126128e-01  4.7086360015816930e-01  5.0223900579638903e-01  3.8084703127725703e-02  8.9227027288517530e-02  9.8414323834224438e-02  9.7508720018684297e-02  8.1028333809837649e-02  5.7222293032961460e-02  2.5937947870148248e-01  8.4226392951876811e-02  4.5443787672397422e-02  5.4814923545252636e-02  1.9820232900883191e-02  3.4267642426817381e-02  2.6612130214314193e-02  1.1093567825451447e-01  2.4012102192977308e-01  3.0097682870530879e-01  3.2198677473013992e-01  2.7867747987607672e-01  6.4119600224188167e-01  1.2030468268733793e-01  1.3827349679460227e-01  1.4985820862904831e-01  2.6540634321543349e-01  1.2067992066415273e-01  2.8057464830277379e-01  2.5426727165089424e-01  1.2323452447780532e-01  3.4207637970134663e-01  1.6970949114378742e-01  3.8245099433449897e-01  2.1637843693313835e-01  5.7283068117674685e-01  6.3918751385560713e-01  1.5953758234093823e-01  1.4393047782955853e-01  2.0174036465960010e-01  5.5330717352852410e-01  5.1207446385899170e-03  1.2151273327926633e-01  1.7428609093031472e-01  2.4896351973729408e-01  2.7620354860639817e-01  1.4297056564325461e-01  1.5448090597948846e-01  1.4714112960706219e-01  1.3537451536315973e-01  1.2860686883994901e-01  2.0061420473733146e-02  1.4348343590090634e-02  5.8550159010061454e-03  7.1741068635646887e-01  7.1632455236586356e-01  5.4453692198412207e-01  4.6446340124861388e-03  2.6427836234876312e-01  5.1383795473258720e-01  8.0965916632332680e-01  6.9619823196405395e-01  1.2429349600830460e-01  2.8817260943968898e-01  2.6993147862397243e-01  4.7630252763809905e-01  1.1255635477028574e-01  3.5441030373844601e-01  1.8342081009572322e-02  2.9049855005303