<?xml version="1.0"?>
<VTKFile type="UnstructuredGrid"  version="0.1"  >
<UnstructuredGrid>
<Piece  NumberOfPoints="3721" NumberOfCells="7200">
<Points>
<DataArray  type="Float64"  NumberOfComponents="3"  format="ascii">0 0 0  0.01666666666666667 0 0  0.03333333333333333 0 0  0.05 0 0  0.06666666666666667 0 0  0.08333333333333333 0 0  0.1 0 0  0.1166666666666667 0 0  0.1333333333333333 0 0  0.15 0 0  0.1666666666666667 0 0  0.1833333333333333 0 0  0.2 0 0  0.2166666666666667 0 0  0.2333333333333333 0 0  0.25 0 0  0.2666666666666667 0 0  0.2833333333333333 0 0  0.3 0 0  0.3166666666666667 0 0  0.3333333333333333 0 0  0.35 0 0  0.3666666666666666 0 0  0.3833333333333334 0 0  0.4 0 0  0.4166666666666667 0 0  0.4333333333333333 0 0  0.45 0 0  0.4666666666666667 0 0  0.4833333333333333 0 0  0.5 0 0  0.5166666666666667 0 0  0.5333333333333333 0 0  0.55 0 0  0.5666666666666667 0 0  0.5833333333333334 0 0  0.6 0 0  0.6166666666666667 0 0  0.6333333333333333 0 0  0.65 0 0  0.6666666666666666 0 0  0.6833333333333333 0 0  0.7 0 0  0.7166666666666667 0 0  0.7333333333333333 0 0  0.75 0 0  0.7666666666666667 0 0  0.7833333333333333 0 0  0.8 0 0  0.8166666666666667 0 0  0.8333333333333334 0 0  0.85 0 0  0.8666666666666667 0 0  0.8833333333333333 0 0  0.9 0 0  0.9166666666666666 0 0  0.9333333333333333 0 0  0.95 0 0  0.9666666666666667 0 0  0.9833333333333333 0 0  1 0 0  0 0.03333333333333333 0  0.01666666666666667 0.03333333333333333 0  0.03333333333333333 0.03333333333333333 0  0.05 0.03333333333333333 0  0.06666666666666667 0.03333333333333333 0  0.08333333333333333 0.03333333333333333 0  0.1 0.03333333333333333 0  0.1166666666666667 0.03333333333333333 0  0.1333333333333333 0.03333333333333333 0  0.15 0.03333333333333333 0  0.1666666666666667 0.03333333333333333 0  0.1833333333333333 0.03333333333333333 0  0.2 0.03333333333333333 0  0.2166666666666667 0.03333333333333333 0  0.2333333333333333 0.03333333333333333 0  0.25 0.03333333333333333 0  0.2666666666666667 0.03333333333333333 0  0.2833333333333333 0.03333333333333333 0  0.3 0.03333333333333333 0  0.3166666666666667 0.03333333333333333 0  0.3333333333333333 0.03333333333333333 0  0.35 0.03333333333333333 0  0.3666666666666666 0.03333333333333333 0  0.3833333333333334 0.03333333333333333 0  0.4 0.03333333333333333 0  0.4166666666666667 0.03333333333333333 0  0.4333333333333333 0.03333333333333333 0  0.45 0.03333333333333333 0  0.4666666666666667 0.03333333333333333 0  0.4833333333333333 0.03333333333333333 0  0.5 0.03333333333333333 0  0.5166666666666667 0.03333333333333333 0  0.5333333333333333 0.03333333333333333 0  0.55 0.03333333333333333 0  0.5666666666666667 0.03333333333333333 0  0.5833333333333334 0.03333333333333333 0  0.6 0.03333333333333333 0  0.6166666666666667 0.03333333333333333 0  0.6333333333333333 0.03333333333333333 0  0.65 0.03333333333333333 0  0.6666666666666666 0.03333333333333333 0  0.6833333333333333 0.03333333333333333 0  0.7 0.03333333333333333 0  0.7166666666666667 0.03333333333333333 0  0.7333333333333333 0.03333333333333333 0  0.75 0.03333333333333333 0  0.7666666666666667 0.03333333333333333 0  0.7833333333333333 0.03333333333333333 0  0.8 0.03333333333333333 0  0.8166666666666667 0.03333333333333333 0  0.8333333333333334 0.03333333333333333 0  0.85 0.03333333333333333 0  0.8666666666666667 0.03333333333333333 0  0.8833333333333333 0.03333333333333333 0  0.9 0.03333333333333333 0  0.9166666666666666 0.03333333333333333 0  0.9333333333333333 0.03333333333333333 0  0.95 0.03333333333333333 0  0.9666666666666667 0.03333333333333333 0  0.9833333333333333 0.03333333333333333 0  1 0.03333333333333333 0  0 0.06666666666666667 0  0.01666666666666667 0.06666666666666667 0  0.03333333333333333 0.06666666666666667 0  0.05 0.06666666666666667 0  0.06666666666666667 0.06666666666666667 0  0.08333333333333333 0.06666666666666667 0  0.1 0.06666666666666667 0  0.1166666666666667 0.06666666666666667 0  0.1333333333333333 0.06666666666666667 0  0.15 0.06666666666666667 0  0.1666666666666667 0.06666666666666667 0  0.1833333333333333 0.06666666666666667 0  0.2 0.06666666666666667 0  0.2166666666666667 0.06666666666666667 0  0.2333333333333333 0.06666666666666667 0  0.25 0.06666666666666667 0  0.2666666666666667 0.06666666666666667 0  0.2833333333333333 0.06666666666666667 0  0.3 0.06666666666666667 0  0.3166666666666667 0.06666666666666667 0  0.3333333333333333 0.06666666666666667 0  0.35 0.06666666666666667 0  0.3666666666666666 0.06666666666666667 0  0.3833333333333334 0.06666666666666667 0  0.4 0.06666666666666667 0  0.4166666666666667 0.06666666666666667 0  0.4333333333333333 0.06666666666666667 0  0.45 0.06666666666666667 0  0.4666666666666667 0.06666666666666667 0  0.4833333333333333 0.06666666666666667 0  0.5 0.06666666666666667 0  0.5166666666666667 0.06666666666666667 0  0.5333333333333333 0.06666666666666667 0  0.55 0.06666666666666667 0  0.5666666666666667 0.06666666666666667 0  0.5833333333333334 0.06666666666666667 0  0.6 0.06666666666666667 0  0.6166666666666667 0.06666666666666667 0  0.6333333333333333 0.06666666666666667 0  0.65 0.06666666666666667 0  0.6666666666666666 0.06666666666666667 0  0.6833333333333333 0.06666666666666667 0  0.7 0.06666666666666667 0  0.7166666666666667 0.06666666666666667 0  0.7333333333333333 0.06666666666666667 0  0.75 0.06666666666666667 0  0.7666666666666667 0.06666666666666667 0  0.7833333333333333 0.06666666666666667 0  0.8 0.06666666666666667 0  0.8166666666666667 0.06666666666666667 0  0.8333333333333334 0.06666666666666667 0  0.85 0.06666666666666667 0  0.8666666666666667 0.06666666666666667 0  0.8833333333333333 0.06666666666666667 0  0.9 0.06666666666666667 0  0.9166666666666666 0.06666666666666667 0  0.9333333333333333 0.06666666666666667 0  0.95 0.06666666666666667 0  0.9666666666666667 0.06666666666666667 0  0.9833333333333333 0.06666666666666667 0  1 0.06666666666666667 0  0 0.1 0  0.01666666666666667 0.1 0  0.03333333333333333 0.1 0  0.05 0.1 0  0.06666666666666667 0.1 0  0.08333333333333333 0.1 0  0.1 0.1 0  0.1166666666666667 0.1 0  0.1333333333333333 0.1 0  0.15 0.1 0  0.1666666666666667 0.1 0  0.1833333333333333 0.1 0  0.2 0.1 0  0.2166666666666667 0.1 0  0.2333333333333333 0.1 0  0.25 0.1 0  0.2666666666666667 0.1 0  0.2833333333333333 0.1 0  0.3 0.1 0  0.3166666666666667 0.1 0  0.3333333333333333 0.1 0  0.35 0.1 0  0.3666666666666666 0.1 0  0.3833333333333334 0.1 0  0.4 0.1 0  0.4166666666666667 0.1 0  0.4333333333333333 0.1 0  0.45 0.1 0  0.4666666666666667 0.1 0  0.4833333333333333 0.1 0  0.5 0.1 0  0.5166666666666667 0.1 0  0.5333333333333333 0.1 0  0.55 0.1 0  0.5666666666666667 0.1 0  0.5833333333333334 0.1 0  0.6 0.1 0  0.6166666666666667 0.1 0  0.6333333333333333 0.1 0  0.65 0.1 0  0.6666666666666666 0.1 0  0.6833333333333333 0.1 0  0.7 0.1 0  0.7166666666666667 0.1 0  0.7333333333333333 0.1 0  0.75 0.1 0  0.7666666666666667 0.1 0  0.7833333333333333 0.1 0  0.8 0.1 0  0.8166666666666667 0.1 0  0.8333333333333334 0.1 0  0.85 0.1 0  0.8666666666666667 0.1 0  0.8833333333333333 0.1 0  0.9 0.1 0  0.9166666666666666 0.1 0  0.9333333333333333 0.1 0  0.95 0.1 0  0.9666666666666667 0.1 0  0.9833333333333333 0.1 0  1 0.1 0  0 0.1333333333333333 0  0.01666666666666667 0.1333333333333333 0  0.03333333333333333 0.1333333333333333 0  0.05 0.1333333333333333 0  0.06666666666666667 0.1333333333333333 0  0.08333333333333333 0.1333333333333333 0  0.1 0.1333333333333333 0  0.1166666666666667 0.1333333333333333 0  0.1333333333333333 0.1333333333333333 0  0.15 0.1333333333333333 0  0.1666666666666667 0.1333333333333333 0  0.1833333333333333 0.1333333333333333 0  0.2 0.1333333333333333 0  0.2166666666666667 0.1333333333333333 0  0.2333333333333333 0.1333333333333333 0  0.25 0.1333333333333333 0  0.2666666666666667 0.1333333333333333 0  0.2833333333333333 0.1333333333333333 0  0.3 0.1333333333333333 0  0.3166666666666667 0.1333333333333333 0  0.3333333333333333 0.1333333333333333 0  0.35 0.1333333333333333 0  0.3666666666666666 0.1333333333333333 0  0.3833333333333334 0.1333333333333333 0  0.4 0.1333333333333333 0  0.4166666666666667 0.1333333333333333 0  0.4333333333333333 0.1333333333333333 0  0.45 0.1333333333333333 0  0.4666666666666667 0.1333333333333333 0  0.4833333333333333 0.1333333333333333 0  0.5 0.1333333333333333 0  0.5166666666666667 0.1333333333333333 0  0.5333333333333333 0.1333333333333333 0  0.55 0.1333333333333333 0  0.5666666666666667 0.1333333333333333 0  0.5833333333333334 0.1333333333333333 0  0.6 0.1333333333333333 0  0.6166666666666667 0.1333333333333333 0  0.6333333333333333 0.1333333333333333 0  0.65 0.1333333333333333 0  0.6666666666666666 0.1333333333333333 0  0.6833333333333333 0.1333333333333333 0  0.7 0.1333333333333333 0  0.7166666666666667 0.1333333333333333 0  0.7333333333333333 0.1333333333333333 0  0.75 0.1333333333333333 0  0.7666666666666667 0.1333333333333333 0  0.7833333333333333 0.1333333333333333 0  0.8 0.1333333333333333 0  0.8166666666666667 0.1333333333333333 0  0.8333333333333334 0.1333333333333333 0  0.85 0.1333333333333333 0  0.8666666666666667 0.1333333333333333 0  0.8833333333333333 0.1333333333333333 0  0.9 0.1333333333333333 0  0.9166666666666666 0.1333333333333333 0  0.9333333333333333 0.1333333333333333 0  0.95 0.1333333333333333 0  0.9666666666666667 0.1333333333333333 0  0.9833333333333333 0.1333333333333333 0  1 0.1333333333333333 0  0 0.1666666666666667 0  0.01666666666666667 0.1666666666666667 0  0.03333333333333333 0.1666666666666667 0  0.05 0.1666666666666667 0  0.06666666666666667 0.1666666666666667 0  0.08333333333333333 0.1666666666666667 0  0.1 0.1666666666666667 0  0.1166666666666667 0.1666666666666667 0  0.1333333333333333 0.1666666666666667 0  0.15 0.1666666666666667 0  0.1666666666666667 0.1666666666666667 0  0.1833333333333333 0.1666666666666667 0  0.2 0.1666666666666667 0  0.2166666666666667 0.1666666666666667 0  0.2333333333333333 0.1666666666666667 0  0.25 0.1666666666666667 0  0.2666666666666667 0.1666666666666667 0  0.2833333333333333
[...]
<PointData  Scalars="f_5-2"> 
<DataArray  type="Float64"  Name="f_5-2"  format="ascii">8.8796707734793012e-01  8.8767950732660272e-01  8.8742210239878527e-01  8.8720509964467031e-01  8.8700697411018803e-01  8.8681294576843073e-01  8.8661402814601964e-01  8.8640486461274204e-01  8.8618230820532329e-01  8.8594458773659224e-01  8.8569082226321161e-01  8.8542073223110551e-01  8.8513446163770881e-01  8.8483246398482984e-01  8.8451542583135290e-01  8.8418421315524265e-01  8.8383983197317939e-01  8.8348339814655985e-01  8.8311611329020001e-01  8.8273924486448196e-01  8.8235410923199764e-01  8.8196205689094054e-01  8.8156445936966887e-01  8.8116269744181774e-01  8.8075815043593964e-01  8.8035218648979952e-01  8.7994615364993423e-01  8.7954137175088576e-01  8.7913912503086888e-01  8.7874065545464730e-01  8.7834715672287400e-01  8.7795976895098715e-01  8.7757957400146591e-01  8.7720759145111982e-01  8.7684477517043524e-01  8.7649201048533643e-01  8.7615011188225134e-01  8.7581982120521307e-01  8.7550180627825913e-01  8.7519665986642059e-01  8.7490489886229605e-01  8.7462696355006053e-01  8.7436321675097350e-01  8.7411394258725206e-01  8.7387934450362792e-01  8.7365954204049556e-01  8.7345456562875745e-01  8.7326434831907973e-01  8.7308871276633815e-01  8.7292735076902717e-01  8.7277979082467172e-01  8.7264534569939467e-01  8.7252302519426195e-01  8.7241138530196849e-01  8.7230825512614008e-01  8.7221021721925196e-01  8.7211156809107737e-01  8.7200214031026801e-01  8.7186255155371151e-01  8.7165348703926826e-01  8.7129085983312782e-01  8.8093493668290479e-01  8.8090293609518511e-01  8.8083048011296516e-01  8.8072859031333606e-01  8.8060358534907568e-01  8.8045785897994377e-01  8.8029214445461101e-01  8.8010661366398701e-01  8.7990135283759907e-01  8.7967655114772092e-01  8.7943256345644738e-01  8.7916992016724127e-01  8.7888931628305134e-01  8.7859159341489945e-01  8.7827772038013097e-01  8.7794877452044595e-01  8.7760592439512930e-01  8.7725041392174341e-01  8.7688354783439115e-01  8.7650667828442663e-01  8.7612119242353848e-01  8.7572850084094334e-01  8.7533002676089477e-01  8.7492719593513868e-01  8.7452142718852766e-01  8.7411412359358220e-01  8.7370666426185817e-01  8.7330039674842874e-01  8.7289663007091145e-01  8.7249662834643515e-01  8.7210160505034584e-01  8.7171271789856886e-01  8.7133106435227803e-01  8.7095767773827337e-01  8.7059352397254608e-01  8.7023949886665630e-01  8.6989642598665629e-01  8.6956505502286696e-01  8.6924606061459697e-01  8.6894004155673643e-01  8.6864752029324510e-01  8.6836894257477737e-01  8.6810467712173034e-01  8.6785501508608931e-01  8.6762016904083217e-01  8.6740027113625184e-01  8.6719536993932145e-01  8.6700542530053359e-01  8.6683030035758168e-01  8.6666974947673969e-01  8.6652340056942267e-01  8.6639072991573807e-01  8.6627102777396547e-01  8.6616335481201201e-01  8.6606649597441610e-01  8.6597893833860340e-01  8.6589895528132188e-01  8.6582502907527559e-01  8.6575723854686604e-01  8.6570126527431956e-01  8.6567932975566120e-01  8.6260382509009159e-01  8.6260463028224943e-01  8.6257231399934953e-01  8.6250761663646891e-01  8.6241338127606348e-01  8.6229182553010708e-01  8.6214456308656906e-01  8.6197282045391777e-01  8.6177762111108802e-01  8.6155991018718114e-01  8.6132063061315345e-01  8.6106076596362702e-01  8.6078136203497513e-01  8.6048353535041600e-01  8.6016847380403605e-01  8.5983743265318802e-01  8.5949172780431438e-01  8.5913272756599057e-01  8.5876184358053720e-01  8.5838052137090981e-01  8.5799023077853054e-01  8.5759245647179683e-01  8.5718868864942843e-01  8.5678041402816008e-01  8.5636910718395176e-01  8.5595622230343160e-01  8.5554318539230156e-01  8.5513138698122149e-01  8.5472217536442463e-01  8.5431685040053285e-01  8.5391665790007454e-01  8.5352278461884235e-01  8.5313635387083875e-01  8.5275842176722116e-01  8.5238997408161699e-01  8.5203192373524395e-01  8.5168510888569604e-01  8.5135029159535325e-01  8.5102815704465307e-01  8.5071931324462580e-01  8.5042429119108731e-01  8.5014354538953807e-01  8.4987745466614983e-01  8.4962632316542863e-01  8.4939038142378698e-01  8.4916978740089066e-01  8.4896462735683575e-01  8.4877491649878589e-01  8.4860059941688992e-01  8.4844155054638515e-01  8.4829757535207184e-01  8.4816841385095121e-01  8.4805374988056781e-01  8.4795323288654700e-01  8.4786652508834515e-01  8.4779339714393454e-01  8.4773391084386340e-01  8.4768874386703941e-01  8.4765970688278869e-01  8.4765039009006338e-01  8.4766637802834577e-01  8.3387248078741860e-01  8.3388167430364790e-01  8.3386136194099703e-01  8.3380992380588603e-01  8.3372835024778069e-01  8.3361787876981519e-01  8.3347973485033944e-01  8.3331509185228780e-01  8.3312508616552172e-01  8.3291084458184173e-01  8.3267350941855600e-01  8.3241425712139816e-01  8.3213431001547000e-01  8.3183494222359655e-01  8.3151748105329026e-01  8.3118330503453031e-01  8.3083383956228007e-01  8.3047055087072985e-01  8.3009493888032404e-01  8.2970852931689654e-01  8.2931286539935245e-01  8.2890949931883851e-01  8.2849998368062749e-01  8.2808586304360932e-01  8.2766866566536745e-01  8.2724989554234551e-01  8.2683102481987381e-01  8.2641348663500891e-01  8.2599866844701308e-01  8.2558790590079234e-01  8.2518247726262162e-01  8.2478359845996263e-01  8.2439241875111413e-01  8.2401001704353216e-01  8.2363739887357834e-01  8.2327549405374600e-01  8.2292515498717123e-01  8.2258715564308116e-01  8.2226219118020405e-01  8.2195087819930923e-01  8.2165375560217713e-01  8.2137128603122256e-01  8.2110385786447615e-01  8.2085178774549361e-01  8.2061532364341661e-01  8.2039464846414700e-01  8.2018988428317041e-01  8.2000109735138216e-01  8.1982830415649255e-01  8.1967147902558612e-01  8.1953056405874525e-01  8.1940548261094215e-01  8.1929615808545875e-01  8.1920254035000295e-01  8.1912464229401616e-01  8.1906258786872554e-01  8.1901666836791898e-01  8.1898739079385474e-01  8.1897547446573293e-01  8.1898169808088706e-01  8.1900643249729721e-01  7.9610653039860924e-01  7.9611970844377067e-01  7.9610456822384179e-01  7.9605900276117325e-01  7.9598341757353419e-01  7.9587860075608097e-01  7.9574548921574972e-01  7.9558510192241028e-01  7.9539851703538411e-01  7.9518686547487860e-01  7.9495133070658164e-01  7.9469315009157282e-01  7.9441361566999946e-01  7.9411407351842744e-01  7.9379592146683764e-01  7.9346060527006512e-01  7.9310961345628006e-01  7.9274447111211177e-01  7.9236673285584835e-01  7.9197797522653934e-01  7.9157978868632761e-01  7.9117376940565365e-01  7.9076151097620195e-01  7.9034459617562569e-01  7.8992458889065142e-01  7.8950302629123514e-01  7.8908141133596321e-01  7.8866120567912879e-01  7.8824382304134999e-01  7.8783062309696672e-01  7.8742290592530428e-01  7.8702190706560837e-01  7.8662879320947943e-01  7.8624465855917469e-01  7.8587052187388440e-01  7.8550732422070846e-01  7.8515592744251406e-01  7.8481711335001436e-01  7.8449158364117200e-01  7.8417996054826744e-01  7.8388278821126200e-01  7.8360053477690861e-01  7.8333359522649126e-01  7.8308229494325798e-01  7.8284689404493957e-01  7.8262759252812286e-01  7.8242453630304853e-01  7.8223782423902388e-01  7.8206751639033656e-01  7.8191364361944227e-01  7.8177621885249815e-01  7.8165525013187809e-01  7.8155075535424134e-01  7.8146277785846929e-01  7.8139140049445166e-01  7.8133675270402225e-01  7.8129899987086393e-01  7.8127829505478696e-01  7.8127466216559094e-01  7.8128776507939202e-01  7.8131652514602268e-01  7.5086932322826783e-01  7.5088483044077825e-01  7.5087267551990833e-01  7.5083067270912351e-01  7.5075906151386707e-01  7.5065846250238821e-01  7.5052967273935167e-01  7.5037360793583685e-01  7.5019127780016237e-01  7.4998377327953658e-01  7.4975225899862419e-01  7.4949796796833412e-01  7.4922219705836646e-01  7.4892630243049230e-01  7.4861169452943432e-01  7.4827983246614294e-01  7.4793221776788765e-01  7.4757038754762684e-01  7.4719590718614215e-01  7.4681036263838829e-01  7.4641535248007707e-01  7.4601247980797780e-01  7.4560334410168094e-01  7.4518953314646796e-01  7.4477261510889969e-01  7.4435413084861579e-01  7.4393558654210501e-01  7.4351844668711620e-01  7.4310412754949084e-01  7.4269399110765599e-01  7.4228933954453713e-01  7.4189141033047412e-01  7.4150137193567578e-01  7.4112032020564067e-01  7.4074927542818381e-01  7.4038918011605959e-01  7.4004089752499724e-01  7.3970521092326724e-01  7.3938282362555818e-01  7.3907435980142744e-01  7.3878036606683040e-01  7.3850131386707252e-01  7.3823760266029681e-01  7.3798956391360715e-01  7.3775746592854363e-01  7.3754151951799274e-01  7.3734188456160721e-01  7.3715867746713737e-01  7.3699197955135032e-01  7.3684184630956251e-01  7.3670831743598708e-01  7.3659142722843240e-01  7.3649121456617750e-01  7.3640773080587263e-01  7.3634104246622878e-01  7.3629122291801097e-01  7.3625832317098105e-01  7.3624230441126370e-01  7.3624290565316164e-01  7.3625940080012309e-01  7.3629019028350984e-01  6.9984744288013911e-01  6.9986408107161313e-01  6.9985398359324258e-01  6.9981500696741561e-01  6.9974734624780632e-01  6.9965155368799670e-01  6.9952835134085245e-01  6.9937858205952508e-01  6.9920318886243593e-01  6.9900320318670950e-01  6.9877973668886806e-01  6.9853397459701172e-01  6.9826716967870983e-01  6.9798063632596830e-01  6.9767574448419800e-01  6.9735391328721441e-01  6.9701660434685231e-01  6.9666531470166881e-01  6.9630156946465582e-01  6.9592691423166764e-01  6.9554290732398472e-01  6.9515111194404167e-01  6.9475308832480398e-01  6.9435038595183873e-01  6.9394453593415140e-01  6.9353704359603074e-01  6.9312938135762059e-01  6.9272298196732662e-01  6.9231923214436486e-01  6.9191946668489157e-01  6.9152496308059996e-01  6.9113693669413556e-01  6.9075653653121372e-01  6.9038484164503910e-01  6.9002285820464726e-01  6.8967151725475762e-01  6.8933167319109978e-01  6.8900410297169723e-01  6.8868950608132351e-01  6.8838850526346318e-01  6.8810164803131479e-01  6.8782940896705125e-01  6.8757219281625004e-01  6.8733033838175306e-01  6.8710412321787318e-01  6.8689376912014255e-01  6.8669944839539354e-01  6.8652129087752845e-01  6.8635939161827131e-01  6.8621381911536228e-01  6.8608462382045243e-01  6.8597184645253151e-01  6.8587552526011675e-01  6.8579570068484985e-01  6.8573241467442736e-01  6.8568569962470116e-01  6.8565554808620233e-01  6.8564184645503767e-01  6.8564424365495369e-01  6.8566189671371214e-01  6.8569300368099995e-01  6.4478496239458316e-01  6.4480163466281448e-01  6.4479310601523132e-01  6.4475734025829512e-01  6.4469451507260789e-01  6.4460513516134632e-01  6.4448985887142729e-01  6.4434945565176649e-01  6.4418478919396138e-01  6.4399680789306524e-01  6.4378653785075735e-01  6.4355507682091639e-01  6.4330358844713353e-01  6.4303329648712959e-01  6.4274547887111355e-01  6.4244146152157555e-01  6.4212261191095799e-01  6.4179033236598915e-01  6.4144605314940017e-01  6.4109122536447050e-01  6.4072731373736991e-01  6.4035578933783865e-01  6.3997812230160933e-01  6.3959577461865824e-01  6.3921019305059457e-01  6.3882280223881405e-01  6.3843499806252413e-01  6.3804814130283283e-01  6.3766355166585587e-01  6.3728250221432370e-01  6.3690621425365734e-01  6.3653585271493518e-01  6.3617252207358477e-01  6.3581726283909001e-01  6.3547104864752191e-01  6.3513478398522327e-01  6.3480930256866919e-01  6.3449536640216930e-01  6.3419366553177647e-01  6.3390481851047620e-01  6.3362937358627469e-01  6.3336781062105207e-01  6.3312054374386884e-01  6.3288792473713251e-01  6.3267024714707421e-01  6.3246775110017694e-01  6.3228062879253089e-01  6.3210903059640544e-01  6.3195307169216064e-01  6.3181283907439323e-01  6.3168839868205884e-01  6.3157980223089449e-01  6.3148709302376294e-01  6.3141030945485699e-01  6.3134948389045986e-01  6.3130463254908031e-01  6.3127572818037936e-01  6.3126263906654634e-01  6.3126500347365910e-01  6.3128197398965058e-01  6.3131171862485524e-01  5.8740986555010466e-01  5.8742558075732598e-01  5.8741835058266656e-01  5.8738629989953139e-01  5.8732958578076611e-01  5.8724865645348423e-01  5.8714409378382892e-01  5.8701657621501158e-01  5.8686686496245755e-01  5.8669579654138893e-01  5.8650427728936760e-01  5.8629327849490354e-01  5.8606383161594333e-01  5.8581702337675312e-01  5.8555399065428004e-01  5.8527591512204513e-01  5.8498401765032337e-01  5.8467955248015246e-01  5.8436380120126907e-01  5.8403806657271773e-01  5.8370366623087810e-01  5.8336192633358808e-01  5.8301417519138810e-01  5.8266173693801460e-01  5.8230592529234482e-01  5.8194803746335011e-01  5.8158934824831909e-01  5.8123110437287151e-01  5.8087451911918009e-01  5.8052076728642510e-01  5.8017098052491356e-01  5.7982624308255404e-01  5.7948758799952782e-01  5.7915599378403193e-01  5.7883238159897088e-01  5.7851761298642113e-01  5.7821248815357795e-01  5.7791774484074632e-01  5.7763405778867671e-01  5.7736203881915393e-01  5.7710223753911216e-01  5.7685514267449922e-01  5.7662118403546792e-01  5.7640073510881651e-01  5.7619411626643025e-01  5.7600159856889177e-01  5.7582340813009902e-01  5.7565973098935097e-01  5.7551071840789159e-01  5.7537649246004519e-01  5.7525715171094116e-01  5.7515277663584929e-01  5.7506343418636907e-01  5.7498918043157210e-01  5.7493005928053886e-01  5.7488609341541463e-01  5.7485725990191927e-01  5.7484343502703916e-01  5.7484427816622219e-01  5.7485898969934124e-01  5.7488582333496274e-01  5.2935785335252294e-01  5.2937180476698142e-01  5.2936575941588260e-01  5.2933805261031763e-01  5.2928880960433011e-01  5.2921840484668725e-01  5.2912732383636085e-01  5.2901613149409044e-01  5.2888546099735878e-01  5.2873600810597265e-01  5.2856852715249680e-01  5.2838382748633572e-01  5.2818276993481583e-01  5.2796626311324091e-01  5.2773525952092493e-01  5.2749075140603008e-01  5.2723376640447228e-01  5.2696536297061869e-01  5.2668662562529323e-01  5.2639866005192226e-01  5.2610258807546795e-01  5.2579954256154493e-01  5.2549066227501551e-01  5.2517708673856500e-01  5.2485995113234718e-01  5.2454038127585645e-01  5.2421948873278634e-01  5.2389836607881068e-01  5.2357808237105508e-01  5.2325967885652647e-01  5.2294416495498974e-01  5.2263251454974968e-01  5.2232566261756752e-01  5.2202450222649865e-01  5.2172988192785430e-01  5.2144260356575478e-01  5.2116342052488696e-01  5.2089303643409579e-01  5.2063210434033524e-01  5.2038122636423401e-01  5.2014095384506021e-01  5.1991178797908055e-01  5.1969418095106779e-01  5.1948853755376545e-01  5.1929521728408212e-01  5.1911453689705334e-01  5.1894677338810058e-01  5.1879216735904488e-01  5.1865092670028246e-01  5.1852323048417293e-01  5.1840923290061502e-01  5.1830906695028522e-01  5.1822284739492674e-01  5.1815067204572840e-01  5.1809261965044706e-01  5.1804874097840858e-01  5.1801903640548930e-01  5.1800340632527953e-01  5.1800154722356018e-01  5.1801273554644267e-01  5.1803538879759936e-01  4.7210223762651171e-01  4.7211387541711736e-01  4.7210903476399046e-01  4.7208630477850255e-01  4.7204576870010306e-01  4.7198771144032403e-01  4.7191250432336213e-01  4.7182057919709491e-01  4.7171241973580125e-01  4.7158855737562894e-01  4.7144956866966370e-01  4.7129607304179472e-01  4.7112873056931864e-01  4.7094823965039695e-01  4.7075533450070722e-01  4.7055078246154070e-01  4.7033538111953427e-01  4.7010995524771826e-01  4.6987535358326937e-01  4.6963244546125782e-01  4.6938211732660762e-01  4.6912526914882102e-01  4.6886281076590119e-01  4.6859565818539589e-01  4.6832472987160750e-01  4.6805094304876932e-01  4.6777521005038053e-01  4.6749843474491876e-01  4.6722150906781706e-01  4.6694530968890791e-01  4.6667069484350765e-01  4.6639850135396388e-01  4.6612954186682809e-01  4.6586460232887567e-01  4.6560443972299864e-01  4.6534978008257616e-01  4.6510131680031330e-01  4.6485970924475345e-01  4.6462558169474405e-01  4.6439952259906520e-01  4.6418208416522810e-01  4.6397378227805874e-01  4.6377509674503964e-01  4.6358647186131424e-01  4.6340831728250376e-01  4.6324100918753136e-01  4.6308489170560296e-01  4.6294027856972125e-01  4.6280745494053471e-01  4.6268667931312768e-01  4.6257818536429485e-01  4.6248218349694981e-01  4.6239886164844218e-01  4.6232838456429165e-01  4.6227089002805921e-01  4.6222647912696840e-01  4.6219519484699984e-01  4.6217697757085952e-01  4.6217157485574856e-01  4.6217835845947092e-01  4.6219595748123166e-01  4.1689787093692426e-01  4.1690693942100493e-01  4.1690343381422407e-01  4.1688623125072866e-01  4.1685536752753111e-01  4.1681102842220008e-01  4.1675346003611424e-01  4.1668294898351443e-01  4.1659981610500407e-01  4.1650441389673770e-01  4.1639712513590704e-01  4.1627836189253070e-01  4.1614856462580274e-01  4.1600820124056070e-01  4.1585776604900060e-01  4.1569777861284762e-01  4.1552878245550728e-01  4.1535134364136239e-01  4.1516604922406941e-01  4.1497350556905538e-01  4.1477433655812013e-01  4.1456918168639956e-01  4.1435869406406572e-01  4.1414353833703643e-01  4.1392438854264446e-01  4.1370192591762839e-01  4.1347683667692992e-01  4.1324980978257608e-01  4.1302153472236836e-01  4.1279269931817009e-01  4.1256398758326801e-01  4.1233607764758518e-01  4.1210963976844261e-01  4.1188533444312764e-01  4.1166381063775304e-01  4.1144570414481407e-01  4.1123163607951591e-01  4.1102221152239049e-01  4.1081801831299991e-01  4.1061962599666496e-01  4.1042758492320097e-01  4.1024242549358464e-01  4.1006465754728827e-01  4.0989476987959261e-01  4.0973322987430388e-01  4.0958048323251967e-01  4.0943695377158257e-01  4.0930304325861289e-01  4.0917913122718896e-01  4.0906557469856586e-01  4.0896270768036119e-01  4.0887084022703107e-01  4.0879025668167307e-01  4.0872121240787013e-01  4.0866392772841459e-01  4.0861857664522516e-01  4.0858526570487402e-01  4.0856399399321081e-01  4.0855457674755347e-01  4.0855649742786465e-01  4.0856862056162763e-01  3.6474457267071475e-01  3.6475110446202824e-01  3.6474914132579045e-01  3.6473787080332631e-01  3.6471728164457257e-01  3.6468745866394986e-01  3.6464852023458738e-01  3.6460060476976713e-01  3.6454386681974676e-01  3.6447847591249777e-01  3.6440461636098187e-01  3.6432248745360746e-01  3.6423230380003707e-01  3.6413429572897543e-01  3.6402870968378076e-01  3.6391580858332701e-01  3.6379587212607811e-01  3.6366919702119743e-01  3.6353609713434626e-01  3.6339690353877302e-01  3.6325196446487074e-01  3.6310164514378951e-01  3.6294632754300815e-01  3.6278640999399298e-01  3.6262230671417128e-01  3.6245444722737080e-01  3.6228327568857471e-01  3.6210925012025907e-01  3.6193284156867217e-01  3.6175453318914036e-01  3.6157481926981894e-01  3.6139420420322654e-01  3.6121320141440560e-01  3.6103233225364667e-01  3.6085212486041912e-01  3.6067311300350002e-01  3.6049583490032505e-01  3.6032083201635595e-01  3.6014864784281603e-01  3.5997982664854916e-01  3.5981491219905082e-01  3.5965444643292543e-01  3.5949896808313703e-01  3.5934901122735186e-01  3.5920510374822900e-01  3.5906776568029303e-01  3.5893750741426061e-01  3.5881482772098972e-01  3.5870021154304355e-01  3.5859412747760094e-01  3.5849702483171725e-01  3.5840933005434039e-01  3.5833144221053242e-01  3.5826372690880609e-01  3.5820650762250456e-01  3.5816005246965604e-01  3.5812455287340367e-01  3.5810008739794641e-01  3.5808655815301565e-01  3.5808357552909120e-01  3.5809024576538251e-01  3.1637231160969687e-01  3.1637658328567692e-01  3.1637640440733783e-01  3.1637128188516800e-01  3.1636116306454531e-01  3.1634603740864059e-01  3.1632590140320010e-01  3.1630075134701097e-01  3.1627058178290440e-01  3.1623538567074555e-01  3.1619515528009651e-01  3.1614988345336692e-01  3.1609956509080084e-01  3.1604419877897366e-01  3.1598378851248621e-01  3.1591834547104986e-01  3.1584788982050294e-01  3.1577245251008107e-01  3.1569207704099095e-01  3.1560682118366518e-01  3.1551675862329087e-01  3.1542198051542869e-01  3.1532259693579129e-01  3.1521873821051893e-01  3.1511055611552713e-01  3.1499822493565305e-01  3.1488194237633232e-01  3.1476193032233429e-01  3.1463843543961401e-01  3.1451172961755364e-01  3.1438211024972262e-01  3.1424990035175487e-01  3.1411544851500450e-01  3.1397912869429739e-01  3.1384133982734913e-01  3.1370250528230159e-01  3.135630721283669