<?xml version="1.0"?>
<VTKFile type="UnstructuredGrid"  version="0.1"  >
<UnstructuredGrid>
<Piece  NumberOfPoints="3721" NumberOfCells="7200">
<Points>
<DataArray  type="Float64"  NumberOfComponents="3"  format="ascii">0 0 0  0.01666666666666667 0 0  0.03333333333333333 0 0  0.05 0 0  0.06666666666666667 0 0  0.08333333333333333 0 0  0.1 0 0  0.1166666666666667 0 0  0.1333333333333333 0 0  0.15 0 0  0.1666666666666667 0 0  0.1833333333333333 0 0  0.2 0 0  0.2166666666666667 0 0  0.2333333333333333 0 0  0.25 0 0  0.2666666666666667 0 0  0.2833333333333333 0 0  0.3 0 0  0.3166666666666667 0 0  0.3333333333333333 0 0  0.35 0 0  0.3666666666666666 0 0  0.3833333333333334 0 0  0.4 0 0  0.4166666666666667 0 0  0.4333333333333333 0 0  0.45 0 0  0.4666666666666667 0 0  0.4833333333333333 0 0  0.5 0 0  0.5166666666666667 0 0  0.5333333333333333 0 0  0.55 0 0  0.5666666666666667 0 0  0.5833333333333334 0 0  0.6 0 0  0.6166666666666667 0 0  0.6333333333333333 0 0  0.65 0 0  0.6666666666666666 0 0  0.6833333333333333 0 0  0.7 0 0  0.7166666666666667 0 0  0.7333333333333333 0 0  0.75 0 0  0.7666666666666667 0 0  0.7833333333333333 0 0  0.8 0 0  0.8166666666666667 0 0  0.8333333333333334 0 0  0.85 0 0  0.8666666666666667 0 0  0.8833333333333333 0 0  0.9 0 0  0.9166666666666666 0 0  0.9333333333333333 0 0  0.95 0 0  0.9666666666666667 0 0  0.9833333333333333 0 0  1 0 0  0 0.01666666666666667 0  0.01666666666666667 0.01666666666666667 0  0.03333333333333333 0.01666666666666667 0  0.05 0.01666666666666667 0  0.06666666666666667 0.01666666666666667 0  0.08333333333333333 0.01666666666666667 0  0.1 0.01666666666666667 0  0.1166666666666667 0.01666666666666667 0  0.1333333333333333 0.01666666666666667 0  0.15 0.01666666666666667 0  0.1666666666666667 0.01666666666666667 0  0.1833333333333333 0.01666666666666667 0  0.2 0.01666666666666667 0  0.2166666666666667 0.01666666666666667 0  0.2333333333333333 0.01666666666666667 0  0.25 0.01666666666666667 0  0.2666666666666667 0.01666666666666667 0  0.2833333333333333 0.01666666666666667 0  0.3 0.01666666666666667 0  0.3166666666666667 0.01666666666666667 0  0.3333333333333333 0.01666666666666667 0  0.35 0.01666666666666667 0  0.3666666666666666 0.01666666666666667 0  0.3833333333333334 0.01666666666666667 0  0.4 0.01666666666666667 0  0.4166666666666667 0.01666666666666667 0  0.4333333333333333 0.01666666666666667 0  0.45 0.01666666666666667 0  0.4666666666666667 0.01666666666666667 0  0.4833333333333333 0.01666666666666667 0  0.5 0.01666666666666667 0  0.5166666666666667 0.01666666666666667 0  0.5333333333333333 0.01666666666666667 0  0.55 0.01666666666666667 0  0.5666666666666667 0.01666666666666667 0  0.5833333333333334 0.01666666666666667 0  0.6 0.01666666666666667 0  0.6166666666666667 0.01666666666666667 0  0.6333333333333333 0.01666666666666667 0  0.65 0.01666666666666667 0  0.6666666666666666 0.01666666666666667 0  0.6833333333333333 0.01666666666666667 0  0.7 0.01666666666666667 0  0.7166666666666667 0.01666666666666667 0  0.7333333333333333 0.01666666666666667 0  0.75 0.01666666666666667 0  0.7666666666666667 0.01666666666666667 0  0.7833333333333333 0.01666666666666667 0  0.8 0.01666666666666667 0  0.8166666666666667 0.01666666666666667 0  0.8333333333333334 0.01666666666666667 0  0.85 0.01666666666666667 0  0.8666666666666667 0.01666666666666667 0  0.8833333333333333 0.01666666666666667 0  0.9 0.01666666666666667 0  0.9166666666666666 0.01666666666666667 0  0.9333333333333333 0.01666666666666667 0  0.95 0.01666666666666667 0  0.9666666666666667 0.01666666666666667 0  0.9833333333333333 0.01666666666666667 0  1 0.01666666666666667 0  0 0.03333333333333333 0  0.01666666666666667 0.03333333333333333 0  0.03333333333333333 0.03333333333333333 0  0.05 0.03333333333333333 0  0.06666666666666667 0.03333333333333333 0  0.08333333333333333 0.03333333333333333 0  0.1 0.03333333333333333 0  0.1166666666666667 0.03333333333333333 0  0.1333333333333333 0.03333333333333333 0  0.15 0.03333333333333333 0  0.1666666666666667 0.03333333333333333 0  0.1833333333333333 0.03333333333333333 0  0.2 0.03333333333333333 0  0.2166666666666667 0.03333333333333333 0  0.2333333333333333 0.03333333333333333 0  0.25 0.03333333333333333 0  0.2666666666666667 0.03333333333333333 0  0.2833333333333333 0.03333333333333333 0  0.3 0.03333333333333333 0  0.3166666666666667 0.03333333333333333 0  0.3333333333333333 0.03333333333333333 0  0.35 0.03333333333333333 0  0.3666666666666666 0.03333333333333333 0  0.3833333333333334 0.03333333333333333 0  0.4 0.03333333333333333 0  0.4166666666666667 0.03333333333333333 0  0.4333333333333333 0.03333333333333333 0  0.45 0.03333333333333333 0  0.4666666666666667 0.03333333333333333 0  0.4833333333333333 0.03333333333333333 0  0.5 0.03333333333333333 0  0.5166666666666667 0.03333333333333333 0  0.5333333333333333 0.03333333333333333 0  0.55 0.03333333333333333 0  0.5666666666666667 0.03333333333333333 0  0.5833333333333334 0.03333333333333333 0  0.6 0.03333333333333333 0  0.6166666666666667 0.03333333333333333 0  0.6333333333333333 0.03333333333333333 0  0.65 0.03333333333333333 0  0.6666666666666666 0.03333333333333333 0  0.6833333333333333 0.03333333333333333 0  0.7 0.03333333333333333 0  0.7166666666666667 0.03333333333333333 0  0.7333333333333333 0.03333333333333333 0  0.75 0.03333333333333333 0  0.7666666666666667 0.03333333333333333 0  0.7833333333333333 0.03333333333333333 0  0.8 0.03333333333333333 0  0.8166666666666667 0.03333333333333333 0  0.8333333333333334 0.03333333333333333 0  0.85 0.03333333333333333 0  0.8666666666666667 0.03333333333333333 0  0.8833333333333333 0.03333333333333333 0  0.9 0.03333333333333333 0  0.9166666666666666 0.03333333333333333 0  0.9333333333333333 0.03333333333333333 0  0.95 0.03333333333333333 0  0.9666666666666667 0.03333333333333333 0  0.9833333333333333 0.03333333333333333 0  1 0.03333333333333333 0  0 0.05 0  0.01666666666666667 0.05 0  0.03333333333333333 0.05 0  0.05 0.05 0  0.06666666666666667 0.05 0  0.08333333333333333 0.05 0  0.1 0.05 0  0.1166666666666667 0.05 0  0.1333333333333333 0.05 0  0.15 0.05 0  0.1666666666666667 0.05 0  0.1833333333333333 0.05 0  0.2 0.05 0  0.2166666666666667 0.05 0  0.2333333333333333 0.05 0  0.25 0.05 0  0.2666666666666667 0.05 0  0.2833333333333333 0.05 0  0.3 0.05 0  0.3166666666666667 0.05 0  0.3333333333333333 0.05 0  0.35 0.05 0  0.3666666666666666 0.05 0  0.3833333333333334 0.05 0  0.4 0.05 0  0.4166666666666667 0.05 0  0.4333333333333333 0.05 0  0.45 0.05 0  0.4666666666666667 0.05 0  0.4833333333333333 0.05 0  0.5 0.05 0  0.5166666666666667 0.05 0  0.5333333333333333 0.05 0  0.55 0.05 0  0.5666666666666667 0.05 0  0.5833333333333334 0.05 0  0.6 0.05 0  0.6166666666666667 0.05 0  0.6333333333333333 0.05 0  0.65 0.05 0  0.6666666666666666 0.05 0  0.6833333333333333 0.05 0  0.7 0.05 0  0.7166666666666667 0.05 0  0.7333333333333333 0.05 0  0.75 0.05 0  0.7666666666666667 0.05 0  0.7833333333333333 0.05 0  0.8 0.05 0  0.8166666666666667 0.05 0  0.8333333333333334 0.05 0  0.85 0.05 0  0.8666666666666667 0.05 0  0.8833333333333333 0.05 0  0.9 0.05 0  0.9166666666666666 0.05 0  0.9333333333333333 0.05 0  0.95 0.05 0  0.9666666666666667 0.05 0  0.9833333333333333 0.05 0  1 0.05 0  0 0.06666666666666667 0  0.01666666666666667 0.06666666666666667 0  0.03333333333333333 0.06666666666666667 0  0.05 0.06666666666666667 0  0.06666666666666667 0.06666666666666667 0  0.08333333333333333 0.06666666666666667 0  0.1 0.06666666666666667 0  0.1166666666666667 0.06666666666666667 0  0.1333333333333333 0.06666666666666667 0  0.15 0.06666666666666667 0  0.1666666666666667 0.06666666666666667 0  0.1833333333333333 0.06666666666666667 0  0.2 0.06666666666666667 0  0.2166666666666667 0.06666666666666667 0  0.2333333333333333 0.06666666666666667 0  0.25 0.06666666666666667 0  0.2666666666666667 0.06666666666666667 0  0.2833333333333333 0.06666666666666667 0  0.3 0.06666666666666667 0  0.3166666666666667 0.06666666666666667 0  0.3333333333333333 0.06666666666666667 0  0.35 0.06666666666666667 0  0.3666666666666666 0.06666666666666667 0  0.3833333333333334 0.06666666666666667 0  0.4 0.06666666666666667 0  0.4166666666666667 0.06666666666666667 0  0.4333333333333333 0.06666666666666667 0  0.45 0.06666666666666667 0  0.4666666666666667 0.06666666666666667 0  0.4833333333333333 0.06666666666666667 0  0.5 0.06666666666666667 0  0.5166666666666667 0.06666666666666667 0  0.5333333333333333 0.06666666666666667 0  0.55 0.06666666666666667 0  0.5666666666666667 0.06666666666666667 0  0.5833333333333334 0.06666666666666667 0  0.6 0.06666666666666667 0  0.6166666666666667 0.06666666666666667 0  0.6333333333333333 0.06666666666666667 0  0.65 0.06666666666666667 0  0.6666666666666666 0.06666666666666667 0  0.6833333333333333 0.06666666666666667 0  0.7 0.06666666666666667 0  0.7166666666666667 0.06666666666666667 0  0.7333333333333333 0.06666666666666667 0  0.75 0.06666666666666667 0  0.7666666666666667 0.06666666666666667 0  0.7833333333333333 0.06666666666666667 0  0.8 0.06666666666666667 0  0.8166666666666667 0.06666666666666667 0  0.8333333333333334 0.06666666666666667 0  0.85 0.06666666666666667 0  0.8666666666666667 0.06666666666666667 0  0.8833333333333333 0.06666666666666667 0  0.9 0.06666666666666667 0  0.9166666666666666 0.06666666666666667 0  0.9333333333333333 0.06666666666666667 0  0.95 0.06666666666666667 0  0.9666666666666667 0.06666666666666667 0  0.9833333333333333 0.06666666666666667 0  1 0.06666666666666667 0  0 0.08333333333333333 0  0.01666666666666667 0.08333333333333333 0  0.03333333333333333 0.08333333333333333 0  0.05 0.08333333333333333 0  0.06666666666666667 0.08333333333333333 0  0.08333333333333333 0.08333333333333333 0  0.1 0.08333333333333333 0  0.1166666666666667 0.08333333333333333 0  0.1333333333333333 0.08333333333333333 0  0.15 0.08333333333333333 0  0.1666666666666667 0.08333333333333333 0  0.1833333333333333 0.08333333333333333 0  0.2 0.08333333333333333 0  0.2166666666666667 0.083333333333
[...]
<PointData  Scalars="f_5-2"> 
<DataArray  type="Float64"  Name="f_5-2"  format="ascii">1.2700233502273079e+00  1.2699121905337425e+00  1.2700455905010410e+00  1.2704138447345907e+00  1.2709863346446582e+00  1.2717412768607286e+00  1.2726599106576268e+00  1.2737235557878452e+00  1.2749124311549238e+00  1.2762052352796842e+00  1.2775790559364320e+00  1.2790094447083564e+00  1.2804706037988469e+00  1.2819356305182754e+00  1.2833768174970661e+00  1.2847659833688947e+00  1.2860748001489311e+00  1.2872751298202729e+00  1.2883393634948761e+00  1.2892407266696269e+00  1.2899535385788750e+00  1.2904534227003810e+00  1.2907174600643412e+00  1.2907242870038949e+00  1.2904541214330540e+00  1.2898887161309567e+00  1.2890112558352114e+00  1.2878061995365933e+00  1.2862590777932661e+00  1.2843562745979300e+00  1.2820847641025348e+00  1.2794318388666734e+00  1.2763848514147860e+00  1.2729309468754990e+00  1.2690568163134932e+00  1.2647484742655277e+00  1.2599910615232115e+00  1.2547686834771867e+00  1.2490642823215032e+00  1.2428595458013874e+00  1.2361348826753036e+00  1.2288694645144371e+00  1.2210413430641645e+00  1.2126276740424407e+00  1.2036050756065337e+00  1.1939501591532946e+00  1.1836402940023294e+00  1.1726546749012452e+00  1.1609757954245996e+00  1.1485914757508289e+00  1.1354976607021008e+00  1.1217023355065214e+00  1.1072311419053504e+00  1.0921357378268244e+00  1.0765069014525344e+00  1.0604965286002050e+00  1.0443580232178356e+00  1.0285297528645434e+00  1.0138356277998495e+00  1.0020603119448908e+00  9.9791788874942988e-01  1.2677959385012665e+00  1.2678592758968583e+00  1.2680859591009941e+00  1.2685024816530639e+00  1.2691051670148756e+00  1.2698828119206260e+00  1.2708209973609050e+00  1.2719029933304573e+00  1.2731099596391857e+00  1.2744210646677898e+00  1.2758136184337123e+00  1.2772632499031082e+00  1.2787441508800650e+00  1.2802293431085827e+00  1.2816910074700827e+00  1.2831008263645407e+00  1.2844303214787873e+00  1.2856511891616142e+00  1.2867356642122818e+00  1.2876568288775381e+00  1.2883888745556553e+00  1.2889073214100786e+00  1.2891891698995763e+00  1.2892130101799393e+00  1.2889590466453353e+00  1.2884090480695758e+00  1.2875462444578243e+00  1.2863551644232638e+00  1.2848214263500979e+00  1.2829315199927385e+00  1.2806725403556218e+00  1.2780319003695675e+00  1.2749970782671305e+00  1.2715553436087370e+00  1.2676935032112662e+00  1.2633976773451925e+00  1.2586530970476169e+00  1.2534439447522316e+00  1.2477532158290350e+00  1.2415626282449705e+00  1.2348525863312707e+00  1.2276022160178635e+00  1.2197894716759439e+00  1.2113913448832834e+00  1.2023842013993369e+00  1.1927442877565675e+00  1.1824484551541348e+00  1.1714751753758632e+00  1.1598059411659141e+00  1.1474271794436852e+00  1.1343328726653794e+00  1.1205281751564484e+00  1.1060344984169168e+00  1.0908968638559244e+00  1.0751949343521268e+00  1.0590602972802219e+00  1.0427046916307894e+00  1.0264671720786609e+00  1.0108891879517197e+00  9.9679548656594752e-01  9.8510720679545161e-01  1.2621230547951159e+00  1.2622343673976593e+00  1.2625072519225609e+00  1.2629633419942630e+00  1.2636019680918569e+00  1.2644149721060496e+00  1.2653898318557240e+00  1.2665108435014034e+00  1.2677596599802499e+00  1.2691156146498883e+00  1.2705559772160100e+00  1.2720561974174622e+00  1.2735901832812688e+00  1.2751305902506134e+00  1.2766491835892249e+00  1.2781171894347894e+00  1.2795056497149131e+00  1.2807857632820772e+00  1.2819292880147273e+00  1.2829088581729569e+00  1.2836982556919208e+00  1.2842726531346897e+00  1.2846087647567992e+00  1.2846849794283515e+00  1.2844813843807410e+00  1.2839797080911111e+00  1.2831632254186811e+00  1.2820165769351763e+00  1.2805255471336874e+00  1.2786768582188592e+00  1.2764578798909834e+00  1.2738563140082664e+00  1.2708599388398232e+00  1.2674563359312092e+00  1.2636326123855655e+00  1.2593751690112212e+00  1.2546694785853549e+00  1.2494999250934584e+00  1.2438496585090808e+00  1.2377004727391145e+00  1.2310327672519412e+00  1.2238255519991961e+00  1.2160565251745838e+00  1.2077022344325941e+00  1.1987383648288552e+00  1.1891401714571486e+00  1.1788830975114777e+00  1.1679436474497507e+00  1.1563005813788585e+00  1.1439365211046986e+00  1.1308400936024707e+00  1.1170087689771304e+00  1.1024526096023215e+00  1.0871992199642058e+00  1.0713002124818518e+00  1.0548393077753111e+00  1.0379410176302941e+00  1.0207742361886720e+00  1.0035289147819013e+00  9.8629202731721266e-01  9.6860081876587190e-01  1.2528974356499047e+00  1.2530288210418639e+00  1.2533321491055738e+00  1.2538247920174475e+00  1.2545048261670551e+00  1.2553642974740449e+00  1.2563911073418428e+00  1.2575698365248786e+00  1.2588822225990575e+00  1.2603074929014979e+00  1.2618226485157649e+00  1.2634027562071635e+00  1.2650212240743526e+00  1.2666501277285664e+00  1.2682605841041241e+00  1.2698231066034282e+00  1.2713079828073188e+00  1.2726856486882445e+00  1.2739271053144563e+00  1.2750042626801819e+00  1.2758902123003952e+00  1.2765595224233726e+00  1.2769883933460502e+00  1.2771548018522549e+00  1.2770385449078621e+00  1.2766211881821097e+00  1.2758859536205349e+00  1.2748175413459883e+00  1.2734018991259868e+00  1.2716260053510418e+00  1.2694775660110467e+00  1.2669446625462650e+00  1.2640154888390496e+00  1.2606780515702563e+00  1.2569198886254513e+00  1.2527278155996493e+00  1.2480876843019026e+00  1.2429841871133060e+00  1.2374007157743572e+00  1.2313192106883708e+00  1.2247200882125715e+00  1.2175822166802175e+00  1.2098829472350117e+00  1.2015982125282327e+00  1.1927027322662793e+00  1.1831703366677264e+00  1.1729744358046892e+00  1.1620886858472543e+00  1.1504878890599961e+00  1.1381491742384229e+00  1.1250535005951801e+00  1.1111874992184170e+00  1.0965456194067491e+00  1.0811324161478515e+00  1.0649644914211553e+00  1.0480708241665389e+00  1.0304883530153408e+00  1.0122454032224477e+00  9.9331684019759214e-01  9.7352209910086340e-01  9.5234402378664684e-01  1.2401089557711213e+00  1.2402547892336626e+00  1.2405850256199000e+00  1.2411156133152799e+00  1.2418433566921556e+00  1.2427598020946893e+00  1.2438526637244731e+00  1.2451063836077532e+00  1.2465024985323885e+00  1.2480199296362711e+00  1.2496352473781365e+00  1.2513229729169297e+00  1.2530558575952664e+00  1.2548052280857980e+00  1.2565413625631714e+00  1.2582338576735357e+00  1.2598520189202551e+00  1.2613652760041181e+00  1.2627436188460712e+00  1.2639579629128255e+00  1.2649804429422657e+00  1.2657847449797281e+00  1.2663462998919215e+00  1.2666424398510903e+00  1.2666524515829347e+00  1.2663575479855786e+00  1.2657407475444360e+00  1.2647866952347528e+00  1.2634814365234917e+00  1.2618121748486040e+00  1.2597669558131472e+00  1.2573342723204408e+00  1.2545027946587657e+00  1.2512610538711195e+00  1.2475971117020426e+00  1.2434983085016740e+00  1.2389509932843992e+00  1.2339402895537346e+00  1.2284499272701501e+00  1.2224620790942029e+00  1.2159572462905612e+00  1.2089141915122856e+00  1.2013099078077323e+00  1.1931196490884477e+00  1.1843170387205793e+00  1.1748742592733767e+00  1.1647623464305605e+00  1.1539516184205767e+00  1.1424122493861397e+00  1.1301149909403883e+00  1.1170320211293894e+00  1.1031378325434362e+00  1.0884099614013651e+00  1.0728291602127287e+00  1.0563782233871801e+00  1.0390379712194793e+00  1.0207776486396924e+00  1.0015350660266615e+00  9.8117985527826757e-01  9.5945506124216051e-01  9.3590995000333033e-01  1.2237887082027914e+00  1.2239487601355838e+00  1.2243067215750805e+00  1.2248787355697019e+00  1.2256608773115680e+00  1.2266441765430955e+00  1.2278159970659648e+00  1.2291604708848023e+00  1.2306587894582990e+00  1.2322894513976419e+00  1.2340284977807059e+00  1.2358498044865103e+00  1.2377253641697015e+00  1.2396256324309809e+00  1.2415198969153853e+00  1.2433766709351688e+00  1.2451640977392446e+00  1.2468503824382147e+00  1.2484042662111225e+00  1.2497954029732381e+00  1.2509947066489298e+00  1.2519747061422744e+00  1.2527097748427203e+00  1.2531763349958451e+00  1.2533529237889500e+00  1.2532201564300540e+00  1.2527606500439343e+00  1.2519588417611167e+00  1.2508007638609124e+00  1.2492737636503106e+00  1.2473661764870043e+00  1.2450669119913518e+00  1.2423651479766056e+00  1.2392499968465123e+00  1.2357101394750145e+00  1.2317335377775258e+00  1.2273071503383308e+00  1.2224166514822286e+00  1.2170462362313901e+00  1.2111784220270869e+00  1.2047939003473234e+00  1.1978714202478253e+00  1.1903876917754752e+00  1.1823173332302990e+00  1.1736328826194435e+00  1.1643048499950188e+00  1.1543018288992448e+00  1.1435906884721181e+00  1.1321368316299525e+00  1.1199045003745456e+00  1.1068570621935139e+00  1.0929571449359348e+00  1.0781663649695812e+00  1.0624442024203724e+00  1.0457452829689915e+00  1.0280139046038925e+00  1.0091741367778047e+00  9.8911348806931565e-01  9.6765888733944172e-01  9.4454771650594027e-01  9.1940720958435873e-01  1.2040059476583962e+00  1.2041811181130349e+00  1.2045688018174283e+00  1.2051861493646938e+00  1.2060289375741322e+00  1.2070878331607682e+00  1.2083498708295908e+00  1.2097988560465036e+00  1.2114156048345366e+00  1.2131781606045728e+00  1.2150620136242876e+00  1.2170403619080365e+00  1.2190843920916121e+00  1.2211636248132789e+00  1.2232462690275274e+00  1.2252996341977020e+00  1.2272905564229664e+00  1.2291858405619847e+00  1.2309527623967447e+00  1.2325594763517311e+00  1.2339754118358999e+00  1.2351716581605987e+00  1.2361212479207122e+00  1.2367993905519601e+00  1.2371835855268565e+00  1.2372536009117345e+00  1.2369914111437963e+00  1.2363810446516954e+00  1.2354083551129840e+00  1.2340607147198841e+00  1.2323266634954133e+00  1.2301954970320708e+00  1.2276569041992089e+00  1.2247006099354996e+00  1.2213159895166046e+00  1.2174917211971545e+00  1.2132154787082401e+00  1.2084736141267622e+00  1.2032509237122031e+00  1.1975304159883218e+00  1.1912931144067544e+00  1.1845178968409893e+00  1.1771813315514106e+00  1.1692575436170354e+00  1.1607181287092871e+00  1.1515320716966950e+00  1.1416656939675471e+00  1.1310826314748115e+00  1.1197438213557207e+00  1.1076074712211541e+00  1.0946289317603020e+00  1.0807603338205467e+00  1.0659497529085604e+00  1.0501395194845757e+00  1.0332631187138166e+00  1.0152399475636960e+00  9.9596713007324067e-01  9.7530789524326389e-01  9.5307720363317794e-01  9.2902804669140504e-01  9.0284621438275281e-01  1.1808743189154622e+00  1.1810653738734460e+00  1.1814846088668678e+00  1.1821505890127690e+00  1.1830590718207399e+00  1.1842005352382940e+00  1.1855617819185704e+00  1.1871263572054007e+00  1.1888747564279269e+00  1.1907846204478112e+00  1.1928309335084435e+00  1.1949862567440639e+00  1.1972209991097391e+00  1.1995037476350139e+00  1.2018016154023889e+00  1.2040806561265003e+00  1.2063063070946987e+00  1.2084438514422502e+00  1.2104589249948656e+00  1.2123179774406259e+00  1.2139887151980642e+00  1.2154405172887499e+00  1.2166447873356199e+00  1.2175752124737591e+00  1.2182079395671050e+00  1.2185215969635668e+00  1.2184972511342891e+00  1.2181182735334248e+00  1.2173701236598267e+00  1.2162400320699620e+00  1.2147166199718611e+00  1.2127894900821137e+00  1.2104488202027293e+00  1.2076849585818674e+00  1.2044880105043083e+00  1.2008474547684465e+00  1.1967517783508521e+00  1.1921881405511248e+00  1.1871420842990208e+00  1.1815972693554784e+00  1.1755352277040947e+00  1.1689351467316595e+00  1.1617736531893703e+00  1.1540246021870924e+00  1.1456588941713408e+00  1.1366442827507868e+00  1.1269451787300655e+00  1.1165224542187304e+00  1.1053332210050308e+00  1.0933305579136545e+00  1.0804631208340381e+00  1.0666745191133715e+00  1.0519022699818747e+00  1.0360760542888185e+00  1.0191149014154728e+00  1.0009228973536526e+00  9.8138311175398574e-01  9.6034984567993631e-01  9.3764020141589655e-01  9.1302742171974083e-01  8.8623995316934068e-01  1.1545557337187087e+00  1.1547629395272239e+00  1.1552148044443946e+00  1.1559315250177493e+00  1.1569090142910334e+00  1.1581377179566508e+00  1.1596043412925039e+00  1.1612922854597902e+00  1.1631818440937109e+00  1.1652503739939528e+00  1.1674724689729794e+00  1.1698201678141324e+00  1.1722632043804533e+00  1.1747693136619135e+00  1.1773045740287924e+00  1.1798338150192145e+00  1.1823210600904770e+00  1.1847300102082725e+00  1.1870245580017869e+00  1.1891692975014401e+00  1.1911300113888721e+00  1.1928741325294381e+00  1.1943711526705187e+00  1.1955929395428264e+00  1.1965139650647123e+00  1.1971113939918661e+00  1.1973650749794689e+00  1.1972574359936212e+00  1.1967732813136029e+00  1.1958994772704992e+00  1.1946245571630607e+00  1.1929383049496289e+00  1.1908313126300543e+00  1.1882945265440887e+00  1.1853187949581603e+00  1.1818944453951119e+00  1.1780108684212729e+00  1.1736561461036854e+00  1.1688167163645777e+00  1.1634770581554550e+00  1.1576194031533997e+00  1.1512234653571676e+00  1.1442661720369980e+00  1.1367213892776116e+00  1.1285596549328338e+00  1.1197478928064233e+00  1.1102491053447490e+00  1.1000220481518630e+00  1.0890208645588570e+00  1.0771946627374280e+00  1.0644869940166777e+00  1.0508351484542662e+00  1.0361691403113180e+00  1.0204101998836692e+00  1.0034685397560683e+00  9.8524017358344695e-01  9.6560269018388845e-01  9.4441019794539727e-01  9.2148820988932811e-01  8.9662992780408080e-01  8.6959583785965267e-01  1.1252595359215871e+00  1.1254825988895067e+00  1.1259672116348571e+00  1.1267353103619369e+00  1.1277830852531272e+00  1.1291010876753742e+00  1.1306760722544222e+00  1.1324914498012795e+00  1.1345274765177751e+00  1.1367613967831840e+00  1.1391675925873435e+00  1.1417177599331740e+00  1.1443811327506823e+00  1.1471247591617459e+00  1.1499138264646935e+00  1.1527120524556811e+00  1.1554821240870443e+00  1.1581861891852974e+00  1.1607863782694283e+00  1.1632453515854353e+00  1.1655268318071459e+00  1.1675961166696822e+00  1.1694205450796782e+00  1.1709698829231325e+00  1.1722166121506472e+00  1.1731360969513902e+00  1.1737066308560415e+00  1.1739093722558556e+00  1.1737281615988076e+00  1.1731492233271785e+00  1.1721607801316460e+00  1.1707526161413739e+00  1.1689156047066640e+00  1.1666412115344389e+00  1.1639210020692898e+00  1.1607461683564422e+00  1.1571070679548479e+00  1.1529928031819434e+00  1.1483908402501388e+00  1.1432866448971177e+00  1.1376633464896084e+00  1.1315014206297977e+00  1.1247783675398881e+00  1.1174683847710087e+00  1.1095420349554954e+00  1.1009658859279963e+00  1.0917021234951516e+00  1.0817081384134069e+00  1.0709360753164454e+00  1.0593323381597946e+00  1.0468370339608724e+00  1.0333833098855403e+00  1.0188965077109065e+00  1.0032930240302251e+00  9.8647872939757686e-01  9.6834680613140889e-01  9.4877494670437224e-01  9.2762204571620144e-01  9.0472483229186218e-01  8.7989522478258808e-01  8.5291935627367188e-01  1.0932376607756968e+00  1.0934757829841144e+00  1.0939922752241977e+00  1.0948108539492150e+00  1.0959280784171594e+00  1.0973347314455786e+00  1.0990177701561319e+00  1.1009607892950675e+00  1.1031442000465503e+00  1.1055453460010827e+00  1.1081386212276501e+00  1.1108956151785501e+00  1.1137853003567935e+00  1.1167742741916731e+00  1.1198270571572877e+00  1.1229064560948308e+00  1.1259739915774376e+00  1.1289903823221537e+00  1.1319160747971302e+00  1.1347118096605646e+00  1.1373391977215925e+00  1.1397612834336437e+00  1.1419430711245906e+00  1.1438519833914438e+00  1.1454582233588730e+00  1.1467350265059046e+00  1.1476587784338965e+00  1.1482090077914830e+00  1.1483682430019764e+00  1.1481217442697191e+00  1.1474571363185955e+00  1.1463639604366602e+00  1.1448331784641939e+00  1.1428566399668114e+00  1.1404265456099374e+00  1.1375349248047517e+00  1.1341731256116541e+00  1.1303313412649032e+00  1.1259981764040059e+00  1.1211602367198141e+00  1.1158017431732368e+00  1.1099041699564023e+00  1.1034458768634923e+00  1.0964017367578045e+00  1.0887427525479103e+00  1.0804356465594191e+00  1.0714424216153766e+00  1.0617198972394704e+00  1.0512192202916624e+00  1.0398853579057827e+00  1.0276565740859347e+00  1.0144638796536902e+00  1.0002304207804060e+00  9.8487074108375883e-01  9.6828981609510445e-01  9.5038173928443292e-01  9.3102796528722309e-01  9.1009510814454997e-01  8.8743246661704733e-01  8.6286964776351083e-01  8.3621480928952907e-01  1.0587773700783560e+00  1.0590293368868122e+00  1.0595759301629941e+00  1.0604426309764976e+00  1.0616264435487284e+00  1.0631184998015384e+00  1.0649061109962332e+00  1.0669732374071452e+00  1.0693006519529382e+00  1.0718660297865277e+00  1.0746440327247266e+00  1.0776064172532160e+00  1.0807221820158555e+00  1.0839577683322295e+00  1.0872773215981237e+00  1.0906430201182211e+00  1.0940154746016697e+00  1.0973541958983939e+00  1.1006181210848374e+00  1.1037661896639532e+00  1.1067579495101489e+00  1.1095541652847538e+00  1.1121174046201994e+00  1.1144125704285681e+00  1.1164073473813727e+00  1.1180725408864753e+00  1.1193822836168381e+00  1.1203141020251079e+00  1.1208488343863285e+00  1.1209704107554173e+00  1.1206655143845239e+00  1.1199231389716893e+00  1.1187340785963840e+00  1.1170903666797578e+00  1.1149846974341298e+00  1.1124098550615089e+00  1.1093581522772458e+00  1.1058209016195815e+00  1.1017879261587231e+00  1.0972470988249776e+00  1.0921839103790214e+00  1.0865810604572108e+00  1.0804180507607266e+00  1.0736707754289128e+00  1.0663110999130276e+00  1.0583064178758916e+00  1.0496191848198326e+00  1.0402064347824063e+00  1.0300192885893138e+00  1.0190024745682491e+00  1.0070938807194356e+00  9.9422415282507315e-01  9.8031633515994365e-01  9.6528551723550593e-01  9.4903840433253139e-01  9.3147268217501500e-01  9.1247602050041532e-01  8.9192458291533150e-01  8.6968101024413313e-01  8.4559200479173846e-01  8.1948585205558744e-01  1.0221929538051493e+00  1.0224572210474230e+00  1.0230313494435506e+00  1.0239425207555981e+00  1.0251882468109674e+00  1.0267601163520232e+00  1.0286459382041810e+00  1.0308302151911641e+00  1.0332942899247184e+00  1.0360164073709186e+00  1.0389717648265009e+00  1.0421325795880885e+00  1.0454681931105581e+00  1.0489452253726581e+00  1.0525277904877866e+00  1.0561777822639355e+00  1.0598552348130419e+00  1.0635187597056843e+00  1.0671260558001423e+00  1.0706344822805038e+00  1.0740016791377127e+00  1.0771862105252028e+00  1.0801482043796264e+00  1.0828499556897444e+00  1.0852564597167815e+00  1.0873358447386787e+00  1.0890596766692808e+00  1.0904031176225206e+00  1.0913449270657716e+00  1.0918673080053352e+00  1.0919556133761128e+00  1.0915979282926198e+00  1.0907845595475552e+00  1.0895074574911701e+00  1.0877596039916861e+00  1.0855343929263603e+00  1.0828250187191373e+00  1.0796238908112579e+00  1.0759220871809658e+00  1.0717088413156433e+00  1.0669710619591246e+00  1.0616928785459936e+00  1.0558551987264495e+00  1.0494352673458383e+00  1.0424062188429288e+00  1.0347366159987539e+00  1.0263899749761458e+00  1.0173242854835840e+00  1.0074915435044387e+00  9.9683732575571271e-01  9.8530044024691332e-01  9.7281268556086264e-01  9.5929873585413827e-01  9.4467613267904127e-01  9.2885530655900128e-01  9.1173947926563970e-01  8.9322423188479694e-01  8.7319649783790976e-01  8.5153279985591146e-01  8.2809670689708659e-01  8.0273576494552501e-01  9.8381725580812851e-01  9.8409203244022481e-01  9.8469049024350186e-01  9.8564140513404208e-01  9.8694284495380280e-01  9.8858694982346829e-01  9.9056215575452267e-01  9.9285367117601298e-01  9.9544360513857988e-01  9.9831100241602078e-01  1.0014318589074713e+00  1.0047791486502047e+00  1.0083228822641750e+00  1.0120302117216846e+00  1.0158655942782515e+00  1.0197910262711751e+00  1.0237663549864984e+00  1.0277496734281868e+00  1.0316977980143498e+00  1.0355668236451869e+00  1.0393127426695157e+00  1.0428921084436915e+00  1.0462627161706062e+00  1.0493842690087447e+00  1.0522189939478919e+00  1.0547321712627695e+00  1.0568925447246138e+00  1.0586725867096209e+00  1.0600486005136511e+00  1.0610006540259218e+00  1.0615123523075549e+00  1.0615704654705644e+00  1.0611644374507743e+00  1.0602858053672928e+00  1.0589275641400351e+00  1.0570835065953799e+00  1.054747562624581