<?xml version="1.0"?>
<VTKFile type="UnstructuredGrid"  version="0.1"  >
<UnstructuredGrid>
<Piece  NumberOfPoints="3721" NumberOfCells="7200">
<Points>
<DataArray  type="Float64"  NumberOfComponents="3"  format="ascii">0 0 0  0.01666666666666667 0 0  0.03333333333333333 0 0  0.05 0 0  0.06666666666666667 0 0  0.08333333333333333 0 0  0.1 0 0  0.1166666666666667 0 0  0.1333333333333333 0 0  0.15 0 0  0.1666666666666667 0 0  0.1833333333333333 0 0  0.2 0 0  0.2166666666666667 0 0  0.2333333333333333 0 0  0.25 0 0  0.2666666666666667 0 0  0.2833333333333333 0 0  0.3 0 0  0.3166666666666667 0 0  0.3333333333333333 0 0  0.35 0 0  0.3666666666666666 0 0  0.3833333333333334 0 0  0.4 0 0  0.4166666666666667 0 0  0.4333333333333333 0 0  0.45 0 0  0.4666666666666667 0 0  0.4833333333333333 0 0  0.5 0 0  0.5166666666666667 0 0  0.5333333333333333 0 0  0.55 0 0  0.5666666666666667 0 0  0.5833333333333334 0 0  0.6 0 0  0.6166666666666667 0 0  0.6333333333333333 0 0  0.65 0 0  0.6666666666666666 0 0  0.6833333333333333 0 0  0.7 0 0  0.7166666666666667 0 0  0.7333333333333333 0 0  0.75 0 0  0.7666666666666667 0 0  0.7833333333333333 0 0  0.8 0 0  0.8166666666666667 0 0  0.8333333333333334 0 0  0.85 0 0  0.8666666666666667 0 0  0.8833333333333333 0 0  0.9 0 0  0.9166666666666666 0 0  0.9333333333333333 0 0  0.95 0 0  0.9666666666666667 0 0  0.9833333333333333 0 0  1 0 0  0 0.01666666666666667 0  0.01666666666666667 0.01666666666666667 0  0.03333333333333333 0.01666666666666667 0  0.05 0.01666666666666667 0  0.06666666666666667 0.01666666666666667 0  0.08333333333333333 0.01666666666666667 0  0.1 0.01666666666666667 0  0.1166666666666667 0.01666666666666667 0  0.1333333333333333 0.01666666666666667 0  0.15 0.01666666666666667 0  0.1666666666666667 0.01666666666666667 0  0.1833333333333333 0.01666666666666667 0  0.2 0.01666666666666667 0  0.2166666666666667 0.01666666666666667 0  0.2333333333333333 0.01666666666666667 0  0.25 0.01666666666666667 0  0.2666666666666667 0.01666666666666667 0  0.2833333333333333 0.01666666666666667 0  0.3 0.01666666666666667 0  0.3166666666666667 0.01666666666666667 0  0.3333333333333333 0.01666666666666667 0  0.35 0.01666666666666667 0  0.3666666666666666 0.01666666666666667 0  0.3833333333333334 0.01666666666666667 0  0.4 0.01666666666666667 0  0.4166666666666667 0.01666666666666667 0  0.4333333333333333 0.01666666666666667 0  0.45 0.01666666666666667 0  0.4666666666666667 0.01666666666666667 0  0.4833333333333333 0.01666666666666667 0  0.5 0.01666666666666667 0  0.5166666666666667 0.01666666666666667 0  0.5333333333333333 0.01666666666666667 0  0.55 0.01666666666666667 0  0.5666666666666667 0.01666666666666667 0  0.5833333333333334 0.01666666666666667 0  0.6 0.01666666666666667 0  0.6166666666666667 0.01666666666666667 0  0.6333333333333333 0.01666666666666667 0  0.65 0.01666666666666667 0  0.6666666666666666 0.01666666666666667 0  0.6833333333333333 0.01666666666666667 0  0.7 0.01666666666666667 0  0.7166666666666667 0.01666666666666667 0  0.7333333333333333 0.01666666666666667 0  0.75 0.01666666666666667 0  0.7666666666666667 0.01666666666666667 0  0.7833333333333333 0.01666666666666667 0  0.8 0.01666666666666667 0  0.8166666666666667 0.01666666666666667 0  0.8333333333333334 0.01666666666666667 0  0.85 0.01666666666666667 0  0.8666666666666667 0.01666666666666667 0  0.8833333333333333 0.01666666666666667 0  0.9 0.01666666666666667 0  0.9166666666666666 0.01666666666666667 0  0.9333333333333333 0.01666666666666667 0  0.95 0.01666666666666667 0  0.9666666666666667 0.01666666666666667 0  0.9833333333333333 0.01666666666666667 0  1 0.01666666666666667 0  0 0.03333333333333333 0  0.01666666666666667 0.03333333333333333 0  0.03333333333333333 0.03333333333333333 0  0.05 0.03333333333333333 0  0.06666666666666667 0.03333333333333333 0  0.08333333333333333 0.03333333333333333 0  0.1 0.03333333333333333 0  0.1166666666666667 0.03333333333333333 0  0.1333333333333333 0.03333333333333333 0  0.15 0.03333333333333333 0  0.1666666666666667 0.03333333333333333 0  0.1833333333333333 0.03333333333333333 0  0.2 0.03333333333333333 0  0.2166666666666667 0.03333333333333333 0  0.2333333333333333 0.03333333333333333 0  0.25 0.03333333333333333 0  0.2666666666666667 0.03333333333333333 0  0.2833333333333333 0.03333333333333333 0  0.3 0.03333333333333333 0  0.3166666666666667 0.03333333333333333 0  0.3333333333333333 0.03333333333333333 0  0.35 0.03333333333333333 0  0.3666666666666666 0.03333333333333333 0  0.3833333333333334 0.03333333333333333 0  0.4 0.03333333333333333 0  0.4166666666666667 0.03333333333333333 0  0.4333333333333333 0.03333333333333333 0  0.45 0.03333333333333333 0  0.4666666666666667 0.03333333333333333 0  0.4833333333333333 0.03333333333333333 0  0.5 0.03333333333333333 0  0.5166666666666667 0.03333333333333333 0  0.5333333333333333 0.03333333333333333 0  0.55 0.03333333333333333 0  0.5666666666666667 0.03333333333333333 0  0.5833333333333334 0.03333333333333333 0  0.6 0.03333333333333333 0  0.6166666666666667 0.03333333333333333 0  0.6333333333333333 0.03333333333333333 0  0.65 0.03333333333333333 0  0.6666666666666666 0.03333333333333333 0  0.6833333333333333 0.03333333333333333 0  0.7 0.03333333333333333 0  0.7166666666666667 0.03333333333333333 0  0.7333333333333333 0.03333333333333333 0  0.75 0.03333333333333333 0  0.7666666666666667 0.03333333333333333 0  0.7833333333333333 0.03333333333333333 0  0.8 0.03333333333333333 0  0.8166666666666667 0.03333333333333333 0  0.8333333333333334 0.03333333333333333 0  0.85 0.03333333333333333 0  0.8666666666666667 0.03333333333333333 0  0.8833333333333333 0.03333333333333333 0  0.9 0.03333333333333333 0  0.9166666666666666 0.03333333333333333 0  0.9333333333333333 0.03333333333333333 0  0.95 0.03333333333333333 0  0.9666666666666667 0.03333333333333333 0  0.9833333333333333 0.03333333333333333 0  1 0.03333333333333333 0  0 0.05 0  0.01666666666666667 0.05 0  0.03333333333333333 0.05 0  0.05 0.05 0  0.06666666666666667 0.05 0  0.08333333333333333 0.05 0  0.1 0.05 0  0.1166666666666667 0.05 0  0.1333333333333333 0.05 0  0.15 0.05 0  0.1666666666666667 0.05 0  0.1833333333333333 0.05 0  0.2 0.05 0  0.2166666666666667 0.05 0  0.2333333333333333 0.05 0  0.25 0.05 0  0.2666666666666667 0.05 0  0.2833333333333333 0.05 0  0.3 0.05 0  0.3166666666666667 0.05 0  0.3333333333333333 0.05 0  0.35 0.05 0  0.3666666666666666 0.05 0  0.3833333333333334 0.05 0  0.4 0.05 0  0.4166666666666667 0.05 0  0.4333333333333333 0.05 0  0.45 0.05 0  0.4666666666666667 0.05 0  0.4833333333333333 0.05 0  0.5 0.05 0  0.5166666666666667 0.05 0  0.5333333333333333 0.05 0  0.55 0.05 0  0.5666666666666667 0.05 0  0.5833333333333334 0.05 0  0.6 0.05 0  0.6166666666666667 0.05 0  0.6333333333333333 0.05 0  0.65 0.05 0  0.6666666666666666 0.05 0  0.6833333333333333 0.05 0  0.7 0.05 0  0.7166666666666667 0.05 0  0.7333333333333333 0.05 0  0.75 0.05 0  0.7666666666666667 0.05 0  0.7833333333333333 0.05 0  0.8 0.05 0  0.8166666666666667 0.05 0  0.8333333333333334 0.05 0  0.85 0.05 0  0.8666666666666667 0.05 0  0.8833333333333333 0.05 0  0.9 0.05 0  0.9166666666666666 0.05 0  0.9333333333333333 0.05 0  0.95 0.05 0  0.9666666666666667 0.05 0  0.9833333333333333 0.05 0  1 0.05 0  0 0.06666666666666667 0  0.01666666666666667 0.06666666666666667 0  0.03333333333333333 0.06666666666666667 0  0.05 0.06666666666666667 0  0.06666666666666667 0.06666666666666667 0  0.08333333333333333 0.06666666666666667 0  0.1 0.06666666666666667 0  0.1166666666666667 0.06666666666666667 0  0.1333333333333333 0.06666666666666667 0  0.15 0.06666666666666667 0  0.1666666666666667 0.06666666666666667 0  0.1833333333333333 0.06666666666666667 0  0.2 0.06666666666666667 0  0.2166666666666667 0.06666666666666667 0  0.2333333333333333 0.06666666666666667 0  0.25 0.06666666666666667 0  0.2666666666666667 0.06666666666666667 0  0.2833333333333333 0.06666666666666667 0  0.3 0.06666666666666667 0  0.3166666666666667 0.06666666666666667 0  0.3333333333333333 0.06666666666666667 0  0.35 0.06666666666666667 0  0.3666666666666666 0.06666666666666667 0  0.3833333333333334 0.06666666666666667 0  0.4 0.06666666666666667 0  0.4166666666666667 0.06666666666666667 0  0.4333333333333333 0.06666666666666667 0  0.45 0.06666666666666667 0  0.4666666666666667 0.06666666666666667 0  0.4833333333333333 0.06666666666666667 0  0.5 0.06666666666666667 0  0.5166666666666667 0.06666666666666667 0  0.5333333333333333 0.06666666666666667 0  0.55 0.06666666666666667 0  0.5666666666666667 0.06666666666666667 0  0.5833333333333334 0.06666666666666667 0  0.6 0.06666666666666667 0  0.6166666666666667 0.06666666666666667 0  0.6333333333333333 0.06666666666666667 0  0.65 0.06666666666666667 0  0.6666666666666666 0.06666666666666667 0  0.6833333333333333 0.06666666666666667 0  0.7 0.06666666666666667 0  0.7166666666666667 0.06666666666666667 0  0.7333333333333333 0.06666666666666667 0  0.75 0.06666666666666667 0  0.7666666666666667 0.06666666666666667 0  0.7833333333333333 0.06666666666666667 0  0.8 0.06666666666666667 0  0.8166666666666667 0.06666666666666667 0  0.8333333333333334 0.06666666666666667 0  0.85 0.06666666666666667 0  0.8666666666666667 0.06666666666666667 0  0.8833333333333333 0.06666666666666667 0  0.9 0.06666666666666667 0  0.9166666666666666 0.06666666666666667 0  0.9333333333333333 0.06666666666666667 0  0.95 0.06666666666666667 0  0.9666666666666667 0.06666666666666667 0  0.9833333333333333 0.06666666666666667 0  1 0.06666666666666667 0  0 0.08333333333333333 0  0.01666666666666667 0.08333333333333333 0  0.03333333333333333 0.08333333333333333 0  0.05 0.08333333333333333 0  0.06666666666666667 0.08333333333333333 0  0.08333333333333333 0.08333333333333333 0  0.1 0.08333333333333333 0  0.1166666666666667 0.08333333333333333 0  0.1333333333333333 0.08333333333333333 0  0.15 0.08333333333333333 0  0.1666666666666667 0.08333333333333333 0  0.1833333333333333 0.08333333333333333 0  0.2 0.08333333333333333 0  0.2166666666666667 0.083333333333
[...]
<PointData  Scalars="f_5-2"> 
<DataArray  type="Float64"  Name="f_5-2"  format="ascii">3.4389389859083547e-01  3.4405397241365659e-01  3.4479452896292956e-01  3.4612357013597750e-01  3.4802572721063146e-01  3.5049978416225119e-01  3.5355256667185619e-01  3.5719572760758828e-01  3.6144435616001680e-01  3.6631631319492280e-01  3.7183184552726617e-01  3.7801330317287030e-01  3.8488488508486135e-01  3.9247237771670018e-01  4.0080286632685119e-01  4.0990440538930023e-01  4.1980563710928565e-01  4.3053534799910159e-01  4.4212195367763313e-01  4.5459290197536562e-01  4.6797398431625020e-01  4.8228854539680571e-01  4.9755658155934951e-01  5.1379371913728755e-01  5.3101006563957320e-01  5.4920892918299313e-01  5.6838540537383653e-01  5.8852483625558594e-01  6.0960115344194632e-01  6.3157512773549795e-01  6.5439256114565081e-01  6.7798247521959465e-01  7.0225537314194597e-01  7.2710168337697600e-01  7.5239053059314320e-01  7.7796902460707540e-01  8.0366230565429264e-01  8.2927462203496405e-01  8.5459171818278856e-01  8.7938473370562276e-01  9.0341559945928596e-01  9.2644351860950236e-01  9.4823155878352583e-01  9.6855182184705302e-01  9.8718747152272823e-01  1.0039306113517741e+00  1.0185770301693251e+00  1.0309219361358781e+00  1.0407634731367095e+00  1.0479202686277018e+00  1.0522632645201839e+00  1.0537524803506717e+00  1.0524633986931968e+00  1.0485924145911312e+00  1.0424446667436984e+00  1.0344208274695541e+00  1.0250256391059209e+00  1.0149271166644400e+00  1.0051284499706405e+00  9.9746137133911617e-01  9.9624537377063727e-01  3.4153787735669666e-01  3.4189247104082926e-01  3.4272392654400285e-01  3.4409291670288117e-01  3.4601326280050926e-01  3.4849495588496443e-01  3.5154940077512270e-01  3.5519034898422658e-01  3.5943397888258882e-01  3.6429879086076572e-01  3.6980545591863168e-01  3.7597664121959762e-01  3.8283681095867350e-01  3.9041199577635494e-01  3.9872952307448906e-01  4.0781770037289228e-01  4.1770544356283679e-01  4.2842184149615692e-01  4.3999564786429962e-01  4.5245469086193280e-01  4.6582519079352336e-01  4.8013097567855451e-01  4.9539258517075818e-01  5.1162625388516259e-01  5.2884276671587915e-01  5.4704618116442971e-01  5.6623241537637659e-01  5.8638770586698463e-01  6.0748694625773858e-01  6.2949192831074796e-01  6.5234951984267864e-01  6.7598983158695536e-01  7.0032444775290492e-01  7.2524482390576095e-01  7.5062099146148054e-01  7.7630074979750163e-01  8.0210957070455668e-01  8.2785147513459001e-01  8.5331114757955828e-01  8.7825749315639523e-01  9.0244866869005824e-01  9.2563828913485902e-01  9.4758202918180379e-01  9.6804332517753522e-01  9.8679662958854064e-01  1.0036271398267087e+00  1.0183275453923730e+00  1.0306950387641065e+00  1.0405344093465358e+00  1.0476730138850812e+00  1.0519885520726042e+00  1.0534420560199145e+00  1.0521025266146322e+00  1.0481529612788465e+00  1.0418794826633551e+00  1.0336570980327917e+00  1.0239497745350177e+00  1.0133404821216803e+00  1.0026044884740288e+00  9.9282698174182205e-01  9.8542992884334601e-01  3.3602377415205098e-01  3.3641171698894867e-01  3.3726528447036769e-01  3.3864283925396738e-01  3.4056127778774492e-01  3.4303331787266217e-01  3.4607209571684033e-01  3.4969242670860640e-01  3.5391118702782154e-01  3.5874739012678669e-01  3.6422213645738338e-01  3.7035849653590042e-01  3.7718134683459903e-01  3.8471716280797558e-01  3.9299376712298922e-01  4.0204002821743950e-01  4.1188550262950874e-01  4.2256001337747312e-01  4.3409315575487756e-01  4.4651372116928911e-01  4.5984902910665826e-01  4.7412415701335875e-01  4.8936105795761248e-01  5.0557755650169578e-01  5.2278621446709961e-01  5.4099306043469153e-01  5.6019618017463590e-01  5.8038417009671839e-01  6.0153446268075295e-01  6.2361154221248061e-01  6.4656508164121496e-01  6.7032804772257570e-01  6.9481484260658188e-01  7.1991957640369220e-01  7.4551459734680847e-01  7.7144944324321529e-01  7.9755041694221140e-01  8.2362102214974586e-01  8.4944350962498327e-01  8.7478175346963050e-01  8.9938556928725899e-01  9.2299636536579432e-01  9.4535367098754119e-01  9.6620166369843674e-01  9.8529449484389675e-01  1.0023993246367084e+00  1.0172969345488334e+00  1.0297817282626955e+00  1.0396651417374692e+00  1.0467870498876877e+00  1.0510366069864361e+00  1.0523774935858901e+00  1.0508673358089360e+00  1.0466626786998843e+00  1.0400093910860619e+00  1.0312268544541039e+00  1.0206956837697543e+00  1.0088515072422239e+00  9.9617048059827618e-01  9.8308968549811548e-01  9.6967139205477892e-01  3.2794732095315293e-01  3.2833392643310982e-01  3.2918439728984422e-01  3.3055286045307597e-01  3.3245513369673169e-01  3.3490409260802795e-01  3.3791331320359075e-01  3.4149806163774804e-01  3.4567563197701034e-01  3.5046543847017769e-01  3.5588899067104524e-01  3.6196979964982062e-01  3.6873323360352284e-01  3.7620632832530976e-01  3.8441755186754034e-01  3.9339651945732285e-01  4.0317365270930283e-01  4.1377977575344160e-01  4.2524563977208935e-01  4.3760136651803189e-01  4.5087580065331823e-01  4.6509576025374449e-01  4.8028517465459702e-01  4.9646409909777833e-01  5.1364759654851311e-01  5.3184447879809138e-01  5.5105590182828157e-01  5.7127381471657113e-01  5.9247926751439284e-01  6.1464059201765153e-01  6.3771148073683603e-01  6.6162900430017557e-01  6.8631162665356149e-01  7.1165730134492833e-01  7.3754176118985659e-01  7.6381714727985872e-01  7.9031115972959465e-01  8.1682694726713101e-01  8.4314397704415600e-01  8.6902012516621074e-01  8.9419518055430813e-01  9.1839583244056189e-01  9.4134199079028968e-01  9.6275397124197559e-01  9.8235973491061035e-01  9.9990120900918877e-01  1.0151390558129347e+00  1.0278563705303967e+00  1.0378634054046070e+00  1.0450063130264120e+00  1.0491813987646863e+00  1.0503522415522948e+00  1.0485630884334274e+00  1.0439421641043107e+00  1.0366935277644498e+00  1.0270813982953326e+00  1.0154113957322402e+00  1.0020077354923840e+00  9.8717538606049360e-01  9.7112250459090266e-01  9.5381275047071468e-01  3.1786501005150974e-01  3.1824245542842733e-01  3.1908019179151570e-01  3.2042994706911637e-01  3.2230646312338929e-01  3.2472229298884492e-01  3.2769104311601621e-01  3.3122816894689533e-01  3.3535123528611532e-01  3.4007998489690061e-01  3.4543631242947909e-01  3.5144417852579840e-01  3.5812947721278376e-01  3.6551986024511285e-01  3.7364451724117315e-01  3.8253390763387157e-01  3.9221943856002517e-01  4.0273308136471808e-01  4.1410691818960793e-01  4.2637260906572294e-01  4.3956076903357633e-01  4.5370024410658943e-01  4.6881727445725246e-01  4.8493453315623436e-01  5.0207002929020328e-01  5.2023586552733914e-01  5.3943684244549939e-01  5.5966890550159487e-01  5.8091743578402255e-01  6.0315539310798927e-01  6.2634133011505400e-01  6.5041730941601827e-01  6.7530677309686560e-01  7.0091243568305650e-01  7.2711429835469410e-01  7.5376791385146213e-01  7.8070306734264239e-01  8.0772307640906515e-01  8.3460494872094626e-01  8.6110066087667181e-01  8.8693982258457194e-01  9.1183394584484145e-01  9.3548242037839502e-01  9.5758007617460250e-01  9.7782589238620066e-01  9.9593207429137709e-01  1.0116325895170415e+00  1.0246906316974775e+00  1.0349054394257704e+00  1.0421198615964333e+00  1.0462298534753318e+00  1.0471950710822433e+00  1.0450471463027069e+00  1.0398915623940810e+00  1.0319012124102342e+00  1.0213025661794062e+00  1.0083560308103026e+00  9.9332999275219536e-01  9.7646489863431551e-01  9.5792331970729139e-01  9.3773353722477071e-01  3.0624045490543744e-01  3.0660708390940999e-01  3.0742802967232191e-01  3.0875357745887194e-01  3.1059781971645650e-01  3.1297303588393527e-01  3.1589279370528661e-01  3.1937265663560593e-01  3.2343039724584771e-01  3.2808604566543242e-01  3.3336185883313618e-01  3.3928223858201539e-01  3.4587360809902695e-01  3.5316424871810609e-01  3.6118409515323374e-01  3.6996448491559464e-01  3.7953785595380468e-01  3.8993738515873727e-01  4.0119655913197078e-01  4.1334866747169585e-01  4.2642620777960494e-01  4.4046019067369135e-01  4.5547933237603050e-01  4.7150912203707662e-01  4.8857075100235625e-01  5.0667989191073137e-01  5.2584531707299220e-01  5.4606734831067094e-01  5.6733613469849409e-01  5.8962976088302776e-01  6.1291219735434876e-01  6.3713111581117909e-01  6.6221560822993564e-01  6.8807386810604054e-01  7.1459091724270396e-01  7.4162649196344244e-01  7.6901323898726337e-01  7.9655541313649703e-01  8.2402831515807939e-01  8.5117875466648185e-01  8.7772686264958633e-01  9.0336959396406591e-01  9.2778622316111081e-01  9.5064600161600332e-01  9.7161786286821850e-01  9.9038163351078801e-01  1.0066397490500723e+00  1.0201282705822834e+00  1.0306263495158150e+00  1.0379641355275155e+00  1.0420297876502900e+00  1.0427758856226679e+00  1.0402241920410171e+00  1.0344665918770206e+00  1.0256601944439621e+00  1.0140156736497623e+00  9.9977881220231335e-01  9.8320550533832207e-01  9.6453090270456421e-01  9.4393596801032009e-01  9.2152221572887927e-01  2.9345242842382230e-01  2.9380807071195303e-01  2.9461026436774124e-01  2.9590818960805132e-01  2.9771557124521814e-01  3.0004453029423167e-01  3.0290862035164917e-01  3.0632349988900431e-01  3.1030712468865740e-01  3.1487978660174409e-01  3.2006408147093962e-01  3.2588483178886513e-01  3.3236897199420706e-01  3.3954539742379586e-01  3.4744477455608686e-01  3.5609930809352192e-01  3.6554245886294873e-01  3.7580860515840714e-01  3.8693263888132301e-01  3.9894948660249357e-01  4.1189354447678694e-01  4.2579801481680574e-01  4.4069413113736577e-01  4.5661025771132968e-01  4.7357084925734522e-01  4.9159525648083802e-01  5.1069636402911978e-01  5.3087904927428864e-01  5.5213845354403457e-01  5.7445806239601616e-01  5.9780759877634326e-01  6.2214074301095323e-01  6.4739270724683329e-01  6.7347770999555812e-01  7.0028641976125239e-01  7.2768346641229431e-01  7.5550515615304925e-01  7.8355757188520425e-01  8.1161529637879715e-01  8.3942106079065437e-01  8.6668669196077941e-01  8.9309579642983361e-01  9.1830864835083126e-01  9.4196968774675371e-01  9.6371780617947944e-01  9.8319913177839890e-01  1.0000813579821000e+00  1.0140680301136296e+00  1.0249110402292509e+00  1.0324201999442006e+00  1.0364699041377914e+00  1.0370036776886919e+00  1.0340370476026564e+00  1.0276579327900901e+00  1.0180226513424322e+00  1.0053455631712793e+00  9.8988134632824909e-01  9.7190052934505944e-01  9.5166080709502865e-01  9.2937920498204663e-01  9.0521322780716862e-01  2.7981174592814084e-01  2.8015655912530268e-01  2.8093888299885039e-01  2.8220687495873531e-01  2.8397403429869078e-01  2.8625240527945012e-01  2.8905556011211642e-01  2.9239925546054485e-01  2.9630161744567524e-01  3.0078317825350714e-01  3.0586684635732070e-01  3.1157783524959365e-01  3.1794355804526636e-01  3.2499348862781258e-01  3.3275898680460103e-01  3.4127308297704334e-01  3.5057021633336788e-01  3.6068591923516719e-01  3.7165643916870372e-01  3.8351828832106061e-01  3.9630770951383004e-01  4.1006004590676659e-01  4.2480900062102500e-01  4.4058577130512461e-01  4.5741804378833023e-01  4.7532882848635255e-01  4.9433512334031360e-01  5.1444638803459575e-01  5.3566281637167423e-01  5.5797339738069951e-01  5.8135376149475082e-01  6.0576381655788991e-01  6.3114519026930349e-01  6.5741851187419120e-01  6.8448058765145459e-01  7.1220155354235426e-01  7.4042212607095670e-01  7.6895112200870430e-01  7.9756348091468066e-01  8.2599910524829401e-01  8.5396292995467549e-01  8.8112673870116109e-01  9.0713333010801889e-01  9.3160364470469981e-01  9.5414729266817233e-01  9.7437646011720036e-01  9.9192238088421880e-01  1.0064526286150259e+00  1.0176868984057506e+00  1.0254092708836549e+00  1.0294762573371279e+00  1.0298213911683187e+00  1.0264575232328510e+00  1.0194768427040490e+00  1.0090469217739766e+00  9.9540031389082428e-01  9.7881621207207770e-01  9.5959494673467194e-01  9.3802856376041466e-01  9.1437276232640385e-01  8.8882631880534424e-01  2.6557645856721956e-01  2.6591062547126698e-01  2.6667233627077280e-01  2.6790871723340787e-01  2.6963310465063639e-01  2.7185750960027344e-01  2.7459554252647067e-01  2.7786305886840451e-01  2.8167834210120501e-01  2.8606214208349506e-01  2.9103764983942365e-01  2.9663043344770912e-01  3.0286834230027460e-01  3.0978138037028591e-01  3.1740154598945258e-01  3.2576263372689107e-01  3.3489999249500307e-01  3.4485023267239429e-01  3.5565087370009330e-01  3.6733992222203665e-01  3.7995536939052915e-01  3.9353459445588967e-01  4.0811366024480483e-01  4.2372648466814822e-01  4.4040387108066997e-01  4.5817237927304882e-01  4.7705301828684366e-01  4.9705974233476402e-01  5.1819773217909881e-01  5.4046144674964569e-01  5.6383243405314809e-01  5.8827689715825537e-01  6.1374302103321365e-01  6.4015808031770227e-01  6.6742536813159892e-01  6.9542101368119524e-01  7.2399079435891955e-01  7.5294709982530494e-01  7.8206627577129062e-01  8.1108666860371637e-01  8.3970781210542511e-01  8.6759133817789824e-01  8.9436433135247906e-01  9.1962591890443157e-01  9.4295778179294820e-01  9.6393883793393487e-01  9.8216349403940217e-01  9.9726171747288794e-01  1.0089182456167640e+00  1.0168882413995417e+00  1.0210079460192305e+00  1.0212006867949164e+00  1.0174795193517088e+00  1.0099469234639031e+00  9.9879008250771473e-01  9.8426920201961998e-01  9.6669726820047563e-01  9.4641217919385268e-01  9.2374481011635978e-01  8.9898824457651227e-01  8.7237336770749607e-01  2.5096371710442866e-01  2.5128737275346935e-01  2.5202791736117641e-01  2.5323141001599225e-01  2.5491104654008839e-01  2.5707882248048430e-01  2.5974839222350488e-01  2.6293570372387659e-01  2.6665918115013743e-01  2.7093976647919776e-01  2.7580089981571987e-01  2.8126846286206997e-01  2.8737069281420702e-01  2.9413806741815623e-01  3.0160315882591193e-01  3.0980045201274231e-01  3.1876612206738397e-01  3.2853776332737256e-01  3.3915406196713249e-01  3.5065440219551336e-01  3.6307839465972125e-01  3.7646531398698596e-01  3.9085343064906297e-01  4.0627922055684607e-01  4.2277643405998033e-01  4.4037500445056010e-01  4.5909977480412478e-01  4.7896902124132984e-01  4.9999275073253696e-01  5.2217075275323255e-01  5.4549038690096296e-01  5.6992409362652052e-01  5.9542662334806462e-01  6.2193199154813961e-01  6.4935018559425917e-01  6.7756367523910921e-01  7.0642381628428719e-01  7.3574729028961738e-01  7.6531279856934076e-01  7.9485833322433574e-01  8.2407948764671579e-01  8.5262944246578731e-01  8.8012144863725061e-01  9.0613476476061039e-01  9.3022496715498093e-01  9.5193916237848941e-01  9.7083574881615264e-01  9.8650707315414976e-01  9.9860209583082893e-01  1.0068458223045431e+00  1.0110532968597610e+00  1.0111378744017083e+00  1.0071147834429202e+00  9.9910050322016575e-01  9.8730672603640379e-01  9.7202655602416366e-01  9.5361151402061106e-01  9.3244050409124934e-01  9.0888452733063929e-01  8.8327237766163702e-01  8.5586221957387254e-01  2.3615857041183624e-01  2.3647179559413192e-01  2.3719073669618904e-01  2.3836034462500583e-01  2.3999367808810779e-01  2.4210271956421403e-01  2.4470116314828885e-01  2.4780503706852264e-01  2.5143288591052393e-01  2.5560581571298502e-01  2.6034747996109114e-01  2.6568403052648049e-01  2.7164404082904320e-01  2.7825840208147307e-01  2.8556019043828312e-01  2.9358450102668576e-01  3.0236824340357110e-01  3.1194989164355358e-01  3.2236918087523547e-01  3.3366674057782553e-01  3.4588365329628334e-01  3.5906092562219044e-01  3.7323885633192699e-01  3.8845628450748820e-01  4.0474969834806329e-01  4.2215218330363796e-01  4.4069218625646417e-01  4.6039207092408491e-01  4.8126643870607899e-01  5.0332018917989241e-01  5.2654629582085533e-01  5.5092327589461498e-01  5.7641233970252603e-01  6.0295421466311416e-01  6.3046565583404646e-01  6.5883567898109763e-01  6.8792158894988820e-01  7.1754493034385758e-01  7.4748756688877049e-01  7.7748820975563171e-01  8.0723987265602204e-01  8.3638893522747115e-01  8.6453672798687098e-01  8.9124474980439561e-01  9.1604466056171285e-01  9.3845385643812962e-01  9.5799654392015199e-01  9.7422880289550684e-01  9.8676463091776656e-01  9.9529925555122856e-01  9.9962677435910507e-01  9.9965109155501530e-01  9.9539070077287495e-01  9.8697777614420001e-01  9.7465057357615992e-01  9.5873712189371885e-01  9.3962909062934674e-01  9.1774727280747725e-01  8.9350269179142672e-01  8.6725864594003599e-01  8.3929858224710163e-01  2.2132030465516378e-01  2.2162313828925714e-01  2.2232012432943243e-01  2.2345506746086805e-01  2.2504088375676504e-01  2.2708953688158101e-01  2.2961475039762180e-01  2.3263261666301202e-01  2.3616177806301261e-01  2.4022347528593005e-01  2.4484153866002134e-01  2.5004234610440490e-01  2.5585475492403675e-01  2.6231000842848079e-01  2.6944161539047751e-01  2.7728519855907513e-01  2.8587830703434475e-01  2.9526018598017406e-01  3.0547149575145516e-01  3.1655397096640808e-01  3.2855000832300618e-01  3.4150217002161137e-01  3.5545258751362041e-01  3.7044224796740172e-01  3.8651014337067446e-01  4.0369225964455335e-01  4.2202038063782371e-01  4.4152067955806951e-01  4.6221206850044111e-01  4.8410427556331337e-01  5.0719561902235188e-01  5.3147044977529012e-01  5.5689623763445928e-01  5.8342028529553003e-01  6.1096606782492913e-01  6.3942921810568099e-01  6.6867321410687308e-01  6.9852487837928567e-01  7.2876988273640353e-01  7.5914857319226092e-01  7.8935260413709263e-01  8.1902310288797797e-01  8.4775136183463384e-01  8.7508331412533724e-01  9.0052915080139495e-01  9.2357915817114156e-01  9.4372596140168519e-01  9.6049182264680977e-01  9.7345789512773162e-01  9.8229129525494896e-01  9.8676635338435348e-01  9.8677826728175522e-01  9.8234919908049534e-01  9.7362715714911363e-01  9.6087686782168968e-01  9.4446096303367955e-01  9.2481072209169002e-01  9.0238810951504111e-01  8.7764335620365386e-01  8.5097352582175556e-01  8.2268704983098961e-01  2.0658690938589969e-01  2.0687936469952894e-01  2.0755411813229249e-01  2.0865379559795655e-01  2.1019116122786918e-01  2.1217815007422966e-01  2.1462850182066556e-01  2.1755835486646868e-01  2.2098642586849510e-01  2.2493406065009364e-01  2.2942523032335058e-01  2.3448649559517326e-01  2.4014694639653628e-01  2.4643811791320089e-01  2.5339388122430528e-01  2.6105030500897308e-01  2.6944548340929658e-01  2.7861932382725846e-01  2.8861328703314415e-01  2.9947007039148316e-01  3.1123322321799163e-01  3.2394668123788334e-01  3.3765420480938768e-01  3.5239870301111015e-01  3.6822142289392984e-01  3.8516098022022560e-01  4.0325220494288683e-01  4.2252477164722452e-01  4.4300158238590187e-01  4.6469686706176533e-01  4.8761396516086930e-01  5.1174275279599846e-01  5.3705668155672226e-01  5.6350940187712151e-01  5.9103095551128182e-01  6.1952354230249096e-01  6.4885690043338018e-01  6.7886339382480665e-01  7.0933298554736501e-01  7.4000840565996251e-01  7.7058101110243193e-01  8.0068809450449452e-01  8.2991271747810502e-01  8.5778746167573938e-01  8.8380366065374538e-01  9.0742744982264290e-01  9.2812307543746253e-01  9.4538225565789624e-01  9.5875640204960078e-01  9.6788716101026084e-01  9.7253099200385440e-01  9.7257533797515849e-01  9.6804598275792964e-01  9.5910583084645673e-01  9.4604447980522022e-01  9.2925719606403534e-01  9.0921283332837532e-01  8.8641271709347180e-01  8.6134498285534600e-01  8.3443995707149354e-01  8.0603167190666991e-01  1.9207816239473680e-01  1.9236024195878146e-01  1.9301255484405003e-01  1.9407652169489209e-01  1.9556474416676334e-01  1.9748911725942817e-01  1.9986338226268713e-01  2.0270370507795435e-01  2.0602885340178237e-01  2.0986024965961003e-01  2.1422197126539663e-01  2.1914072053401157e-01  2.2464577125589763e-01  2.3076889308744272e-01  2.3754425214270805e-01  2.4500828449179901e-01  2.5319953794617839e-01  2.6215847623193395e-01  2.7192723826548626e-01  2.8254934366397533e-01  2.9406933378653155e-01  3.0653233547283376e-01  3.1998353219656261e-01  3.3446752457406365e-01  3.5002755907238892e-01  3.6670460038017477e-01  3.8453621930619047e-01  4.0355526436399375e-01  4.2378828155685283e-01  4.4525364354976127e-01  4.6795934678459344e-01  4.9190043372934061e-01  5.1705599821753467e-01  5.4338573606286744e-01  5.7082601290876622e-01  5.9928543986312399e-01  6.286399799855945