<?xml version="1.0"?>
<VTKFile type="UnstructuredGrid"  version="0.1"  >
<UnstructuredGrid>
<Piece  NumberOfPoints="3721" NumberOfCells="7200">
<Points>
<DataArray  type="Float64"  NumberOfComponents="3"  format="ascii">0 0 0  0.01666666666666667 0 0  0.03333333333333333 0 0  0.05 0 0  0.06666666666666667 0 0  0.08333333333333333 0 0  0.1 0 0  0.1166666666666667 0 0  0.1333333333333333 0 0  0.15 0 0  0.1666666666666667 0 0  0.1833333333333333 0 0  0.2 0 0  0.2166666666666667 0 0  0.2333333333333333 0 0  0.25 0 0  0.2666666666666667 0 0  0.2833333333333333 0 0  0.3 0 0  0.3166666666666667 0 0  0.3333333333333333 0 0  0.35 0 0  0.3666666666666666 0 0  0.3833333333333334 0 0  0.4 0 0  0.4166666666666667 0 0  0.4333333333333333 0 0  0.45 0 0  0.4666666666666667 0 0  0.4833333333333333 0 0  0.5 0 0  0.5166666666666667 0 0  0.5333333333333333 0 0  0.55 0 0  0.5666666666666667 0 0  0.5833333333333334 0 0  0.6 0 0  0.6166666666666667 0 0  0.6333333333333333 0 0  0.65 0 0  0.6666666666666666 0 0  0.6833333333333333 0 0  0.7 0 0  0.7166666666666667 0 0  0.7333333333333333 0 0  0.75 0 0  0.7666666666666667 0 0  0.7833333333333333 0 0  0.8 0 0  0.8166666666666667 0 0  0.8333333333333334 0 0  0.85 0 0  0.8666666666666667 0 0  0.8833333333333333 0 0  0.9 0 0  0.9166666666666666 0 0  0.9333333333333333 0 0  0.95 0 0  0.9666666666666667 0 0  0.9833333333333333 0 0  1 0 0  0 0.03333333333333333 0  0.01666666666666667 0.03333333333333333 0  0.03333333333333333 0.03333333333333333 0  0.05 0.03333333333333333 0  0.06666666666666667 0.03333333333333333 0  0.08333333333333333 0.03333333333333333 0  0.1 0.03333333333333333 0  0.1166666666666667 0.03333333333333333 0  0.1333333333333333 0.03333333333333333 0  0.15 0.03333333333333333 0  0.1666666666666667 0.03333333333333333 0  0.1833333333333333 0.03333333333333333 0  0.2 0.03333333333333333 0  0.2166666666666667 0.03333333333333333 0  0.2333333333333333 0.03333333333333333 0  0.25 0.03333333333333333 0  0.2666666666666667 0.03333333333333333 0  0.2833333333333333 0.03333333333333333 0  0.3 0.03333333333333333 0  0.3166666666666667 0.03333333333333333 0  0.3333333333333333 0.03333333333333333 0  0.35 0.03333333333333333 0  0.3666666666666666 0.03333333333333333 0  0.3833333333333334 0.03333333333333333 0  0.4 0.03333333333333333 0  0.4166666666666667 0.03333333333333333 0  0.4333333333333333 0.03333333333333333 0  0.45 0.03333333333333333 0  0.4666666666666667 0.03333333333333333 0  0.4833333333333333 0.03333333333333333 0  0.5 0.03333333333333333 0  0.5166666666666667 0.03333333333333333 0  0.5333333333333333 0.03333333333333333 0  0.55 0.03333333333333333 0  0.5666666666666667 0.03333333333333333 0  0.5833333333333334 0.03333333333333333 0  0.6 0.03333333333333333 0  0.6166666666666667 0.03333333333333333 0  0.6333333333333333 0.03333333333333333 0  0.65 0.03333333333333333 0  0.6666666666666666 0.03333333333333333 0  0.6833333333333333 0.03333333333333333 0  0.7 0.03333333333333333 0  0.7166666666666667 0.03333333333333333 0  0.7333333333333333 0.03333333333333333 0  0.75 0.03333333333333333 0  0.7666666666666667 0.03333333333333333 0  0.7833333333333333 0.03333333333333333 0  0.8 0.03333333333333333 0  0.8166666666666667 0.03333333333333333 0  0.8333333333333334 0.03333333333333333 0  0.85 0.03333333333333333 0  0.8666666666666667 0.03333333333333333 0  0.8833333333333333 0.03333333333333333 0  0.9 0.03333333333333333 0  0.9166666666666666 0.03333333333333333 0  0.9333333333333333 0.03333333333333333 0  0.95 0.03333333333333333 0  0.9666666666666667 0.03333333333333333 0  0.9833333333333333 0.03333333333333333 0  1 0.03333333333333333 0  0 0.06666666666666667 0  0.01666666666666667 0.06666666666666667 0  0.03333333333333333 0.06666666666666667 0  0.05 0.06666666666666667 0  0.06666666666666667 0.06666666666666667 0  0.08333333333333333 0.06666666666666667 0  0.1 0.06666666666666667 0  0.1166666666666667 0.06666666666666667 0  0.1333333333333333 0.06666666666666667 0  0.15 0.06666666666666667 0  0.1666666666666667 0.06666666666666667 0  0.1833333333333333 0.06666666666666667 0  0.2 0.06666666666666667 0  0.2166666666666667 0.06666666666666667 0  0.2333333333333333 0.06666666666666667 0  0.25 0.06666666666666667 0  0.2666666666666667 0.06666666666666667 0  0.2833333333333333 0.06666666666666667 0  0.3 0.06666666666666667 0  0.3166666666666667 0.06666666666666667 0  0.3333333333333333 0.06666666666666667 0  0.35 0.06666666666666667 0  0.3666666666666666 0.06666666666666667 0  0.3833333333333334 0.06666666666666667 0  0.4 0.06666666666666667 0  0.4166666666666667 0.06666666666666667 0  0.4333333333333333 0.06666666666666667 0  0.45 0.06666666666666667 0  0.4666666666666667 0.06666666666666667 0  0.4833333333333333 0.06666666666666667 0  0.5 0.06666666666666667 0  0.5166666666666667 0.06666666666666667 0  0.5333333333333333 0.06666666666666667 0  0.55 0.06666666666666667 0  0.5666666666666667 0.06666666666666667 0  0.5833333333333334 0.06666666666666667 0  0.6 0.06666666666666667 0  0.6166666666666667 0.06666666666666667 0  0.6333333333333333 0.06666666666666667 0  0.65 0.06666666666666667 0  0.6666666666666666 0.06666666666666667 0  0.6833333333333333 0.06666666666666667 0  0.7 0.06666666666666667 0  0.7166666666666667 0.06666666666666667 0  0.7333333333333333 0.06666666666666667 0  0.75 0.06666666666666667 0  0.7666666666666667 0.06666666666666667 0  0.7833333333333333 0.06666666666666667 0  0.8 0.06666666666666667 0  0.8166666666666667 0.06666666666666667 0  0.8333333333333334 0.06666666666666667 0  0.85 0.06666666666666667 0  0.8666666666666667 0.06666666666666667 0  0.8833333333333333 0.06666666666666667 0  0.9 0.06666666666666667 0  0.9166666666666666 0.06666666666666667 0  0.9333333333333333 0.06666666666666667 0  0.95 0.06666666666666667 0  0.9666666666666667 0.06666666666666667 0  0.9833333333333333 0.06666666666666667 0  1 0.06666666666666667 0  0 0.1 0  0.01666666666666667 0.1 0  0.03333333333333333 0.1 0  0.05 0.1 0  0.06666666666666667 0.1 0  0.08333333333333333 0.1 0  0.1 0.1 0  0.1166666666666667 0.1 0  0.1333333333333333 0.1 0  0.15 0.1 0  0.1666666666666667 0.1 0  0.1833333333333333 0.1 0  0.2 0.1 0  0.2166666666666667 0.1 0  0.2333333333333333 0.1 0  0.25 0.1 0  0.2666666666666667 0.1 0  0.2833333333333333 0.1 0  0.3 0.1 0  0.3166666666666667 0.1 0  0.3333333333333333 0.1 0  0.35 0.1 0  0.3666666666666666 0.1 0  0.3833333333333334 0.1 0  0.4 0.1 0  0.4166666666666667 0.1 0  0.4333333333333333 0.1 0  0.45 0.1 0  0.4666666666666667 0.1 0  0.4833333333333333 0.1 0  0.5 0.1 0  0.5166666666666667 0.1 0  0.5333333333333333 0.1 0  0.55 0.1 0  0.5666666666666667 0.1 0  0.5833333333333334 0.1 0  0.6 0.1 0  0.6166666666666667 0.1 0  0.6333333333333333 0.1 0  0.65 0.1 0  0.6666666666666666 0.1 0  0.6833333333333333 0.1 0  0.7 0.1 0  0.7166666666666667 0.1 0  0.7333333333333333 0.1 0  0.75 0.1 0  0.7666666666666667 0.1 0  0.7833333333333333 0.1 0  0.8 0.1 0  0.8166666666666667 0.1 0  0.8333333333333334 0.1 0  0.85 0.1 0  0.8666666666666667 0.1 0  0.8833333333333333 0.1 0  0.9 0.1 0  0.9166666666666666 0.1 0  0.9333333333333333 0.1 0  0.95 0.1 0  0.9666666666666667 0.1 0  0.9833333333333333 0.1 0  1 0.1 0  0 0.1333333333333333 0  0.01666666666666667 0.1333333333333333 0  0.03333333333333333 0.1333333333333333 0  0.05 0.1333333333333333 0  0.06666666666666667 0.1333333333333333 0  0.08333333333333333 0.1333333333333333 0  0.1 0.1333333333333333 0  0.1166666666666667 0.1333333333333333 0  0.1333333333333333 0.1333333333333333 0  0.15 0.1333333333333333 0  0.1666666666666667 0.1333333333333333 0  0.1833333333333333 0.1333333333333333 0  0.2 0.1333333333333333 0  0.2166666666666667 0.1333333333333333 0  0.2333333333333333 0.1333333333333333 0  0.25 0.1333333333333333 0  0.2666666666666667 0.1333333333333333 0  0.2833333333333333 0.1333333333333333 0  0.3 0.1333333333333333 0  0.3166666666666667 0.1333333333333333 0  0.3333333333333333 0.1333333333333333 0  0.35 0.1333333333333333 0  0.3666666666666666 0.1333333333333333 0  0.3833333333333334 0.1333333333333333 0  0.4 0.1333333333333333 0  0.4166666666666667 0.1333333333333333 0  0.4333333333333333 0.1333333333333333 0  0.45 0.1333333333333333 0  0.4666666666666667 0.1333333333333333 0  0.4833333333333333 0.1333333333333333 0  0.5 0.1333333333333333 0  0.5166666666666667 0.1333333333333333 0  0.5333333333333333 0.1333333333333333 0  0.55 0.1333333333333333 0  0.5666666666666667 0.1333333333333333 0  0.5833333333333334 0.1333333333333333 0  0.6 0.1333333333333333 0  0.6166666666666667 0.1333333333333333 0  0.6333333333333333 0.1333333333333333 0  0.65 0.1333333333333333 0  0.6666666666666666 0.1333333333333333 0  0.6833333333333333 0.1333333333333333 0  0.7 0.1333333333333333 0  0.7166666666666667 0.1333333333333333 0  0.7333333333333333 0.1333333333333333 0  0.75 0.1333333333333333 0  0.7666666666666667 0.1333333333333333 0  0.7833333333333333 0.1333333333333333 0  0.8 0.1333333333333333 0  0.8166666666666667 0.1333333333333333 0  0.8333333333333334 0.1333333333333333 0  0.85 0.1333333333333333 0  0.8666666666666667 0.1333333333333333 0  0.8833333333333333 0.1333333333333333 0  0.9 0.1333333333333333 0  0.9166666666666666 0.1333333333333333 0  0.9333333333333333 0.1333333333333333 0  0.95 0.1333333333333333 0  0.9666666666666667 0.1333333333333333 0  0.9833333333333333 0.1333333333333333 0  1 0.1333333333333333 0  0 0.1666666666666667 0  0.01666666666666667 0.1666666666666667 0  0.03333333333333333 0.1666666666666667 0  0.05 0.1666666666666667 0  0.06666666666666667 0.1666666666666667 0  0.08333333333333333 0.1666666666666667 0  0.1 0.1666666666666667 0  0.1166666666666667 0.1666666666666667 0  0.1333333333333333 0.1666666666666667 0  0.15 0.1666666666666667 0  0.1666666666666667 0.1666666666666667 0  0.1833333333333333 0.1666666666666667 0  0.2 0.1666666666666667 0  0.2166666666666667 0.1666666666666667 0  0.2333333333333333 0.1666666666666667 0  0.25 0.1666666666666667 0  0.2666666666666667 0.1666666666666667 0  0.2833333333333333
[...]
<PointData  Vectors="f_5-0"> 
<DataArray  type="Float64"  Name="f_5-0"  NumberOfComponents="3" format="ascii">0.0000000000000000e+00 -9.5290622941115466e-01 0.0000000000000000e+00  -2.5023241279011386e-04 -9.5294969833233967e-01 0.0000000000000000e+00  -4.9812926824065250e-04 -9.5308217035527631e-01 0.0000000000000000e+00  -7.4293967252238573e-04 -9.5330721306288635e-01 0.0000000000000000e+00  -9.8355448641214904e-04 -9.5362386346325145e-01 0.0000000000000000e+00  -1.2188525689468370e-03 -9.5403028658512734e-01 0.0000000000000000e+00  -1.4476968162661465e-03 -9.5452424169217609e-01 0.0000000000000000e+00  -1.6689756312695855e-03 -9.5510311152981875e-01 0.0000000000000000e+00  -1.8816228528525591e-03 -9.5576391641560265e-01 0.0000000000000000e+00  -2.0846321335350007e-03 -9.5650332451933073e-01 0.0000000000000000e+00  -2.2770679835117762e-03 -9.5731766658918538e-01 0.0000000000000000e+00  -2.4580745190776569e-03 -9.5820295490549112e-01 0.0000000000000000e+00  -2.6268825752791369e-03 -9.5915490647396584e-01 0.0000000000000000e+00  -2.7828153772748829e-03 -9.6016896789512718e-01 0.0000000000000000e+00  -2.9252933439679065e-03 -9.6124034499554767e-01 0.0000000000000000e+00  -3.0538372039172396e-03 -9.6236403386000835e-01 0.0000000000000000e+00  -3.1680703004289264e-03 -9.6353485419539897e-01 0.0000000000000000e+00  -3.2677197290406578e-03 -9.6474748414540556e-01 0.0000000000000000e+00  -3.3526164134777001e-03 -9.6599649560146705e-01 0.0000000000000000e+00  -3.4226941798129341e-03 -9.6727639180141733e-01 0.0000000000000000e+00  -3.4779876962017686e-03 -9.6858164435048555e-01 0.0000000000000000e+00  -3.5186296991036176e-03 -9.6990673022408491e-01 0.0000000000000000e+00  -3.5448472710432458e-03 -9.7124616860177704e-01 0.0000000000000000e+00  -3.5569571248027340e-03 -9.7259455682495222e-01 0.0000000000000000e+00  -3.5553604799764969e-03 -9.7394660525002053e-01 0.0000000000000000e+00  -3.5405369210137825e-03 -9.7529717101490365e-01 0.0000000000000000e+00  -3.5130378480904239e-03 -9.7664128853154952e-01 0.0000000000000000e+00  -3.4734792360736431e-03 -9.7797419875287417e-01 0.0000000000000000e+00  -3.4225340971406975e-03 -9.7929137535262523e-01 0.0000000000000000e+00  -3.3609244061790521e-03 -9.8058854829952113e-01 0.0000000000000000e+00  -3.2894128072579946e-03 -9.8186172354792633e-01 0.0000000000000000e+00  -3.2087941214234829e-03 -9.8310719942156954e-01 0.0000000000000000e+00  -3.1198865549179624e-03 -9.8432158013807003e-01 0.0000000000000000e+00  -3.0235229286724920e-03 -9.8550178444032144e-01 0.0000000000000000e+00  -2.9205419680688807e-03 -9.8664505095913235e-01 0.0000000000000000e+00  -2.8117795509719468e-03 -9.8774894018770365e-01 0.0000000000000000e+00  -2.6980601195162727e-03 -9.8881133154443179e-01 0.0000000000000000e+00  -2.5801883727375277e-03 -9.8983041687626550e-01 0.0000000000000000e+00  -2.4589411817875976e-03 -9.9080469106040558e-01 0.0000000000000000e+00  -2.3350598174572863e-03 -9.9173293778449090e-01 0.0000000000000000e+00  -2.2092423929915253e-03 -9.9261421179284770e-01 0.0000000000000000e+00  -2.0821369471534104e-03 -9.9344781665110027e-01 0.0000000000000000e+00  -1.9543347375324503e-03 -9.9423327810889539e-01 0.0000000000000000e+00  -1.8263639662435052e-03 -9.9497031146035597e-01 0.0000000000000000e+00  -1.6986839636933737e-03 -9.9565878032871558e-01 0.0000000000000000e+00  -1.5716800685743836e-03 -9.9629864401350399e-01 0.0000000000000000e+00  -1.4456594670650502e-03 -9.9688988978782023e-01 0.0000000000000000e+00  -1.3208488671465045e-03 -9.9743244219884430e-01 0.0000000000000000e+00  -1.1973955889202196e-03 -9.9792604180524291e-01 0.0000000000000000e+00  -1.0753750336686535e-03 -9.9837008548584327e-01 0.0000000000000000e+00  -9.5480915862346206e-04 -9.9876342293583931e-01 0.0000000000000000e+00  -8.3570489820336828e-04 -9.9910411246054254e-01 0.0000000000000000e+00  -7.1812404938363683e-04 -9.9938917600304633e-01 0.0000000000000000e+00  -6.0230765524317163e-04 -9.9961443069421607e-01 0.0000000000000000e+00  -4.8887200033144841e-04 -9.9977464994069554e-01 0.0000000000000000e+00  -3.7912584715987839e-04 -9.9986445573250515e-01 0.0000000000000000e+00  -2.7543369169302263e-04 -9.9988107517365854e-01 0.0000000000000000e+00  -1.8168631087978946e-04 -9.9983018464786699e-01 0.0000000000000000e+00  -1.0256832964151016e-04 -9.9974060359719974e-01 0.0000000000000000e+00  -3.9137517841400784e-05 -9.9968204407180583e-01 0.0000000000000000e+00  0.0000000000000000e+00 -1.0000000000000000e+00 0.0000000000000000e+00  0.0000000000000000e+00 -9.4822346222214438e-01 0.0000000000000000e+00  -2.1998477871071611e-04 -9.4827920799297838e-01 0.0000000000000000e+00  -4.3866354056695269e-04 -9.4844393473287714e-01 0.0000000000000000e+00  -6.5479844017865259e-04 -9.4871591470969807e-01 0.0000000000000000e+00  -8.6723911390940611e-04 -9.4909368114025383e-01 0.0000000000000000e+00  -1.0749086434645601e-03 -9.4957546728932229e-01 0.0000000000000000e+00  -1.2767817907051809e-03 -9.5015888167252616e-01 0.0000000000000000e+00  -1.4718724862949472e-03 -9.5084093482667731e-01 0.0000000000000000e+00  -1.6592373354215790e-03 -9.5161808822199900e-01 0.0000000000000000e+00  -1.8379854676688285e-03 -9.5248630088913244e-01 0.0000000000000000e+00  -2.0072880114863755e-03 -9.5344107249058685e-01 0.0000000000000000e+00  -2.1663861997226769e-03 -9.5447748414397671e-01 0.0000000000000000e+00  -2.3145984204892773e-03 -9.5559024095890355e-01 0.0000000000000000e+00  -2.4513255326811564e-03 -9.5677371156570312e-01 0.0000000000000000e+00  -2.5760551799702560e-03 -9.5802197410600187e-01 0.0000000000000000e+00  -2.6883648405268768e-03 -9.5932885907012910e-01 0.0000000000000000e+00  -2.7879239800758129e-03 -9.6068799669710059e-01 0.0000000000000000e+00  -2.8744949938972614e-03 -9.6209286374698288e-01 0.0000000000000000e+00  -2.9479331477702928e-03 -9.6353683078537300e-01 0.0000000000000000e+00  -3.0081858142544139e-03 -9.6501321101207893e-01 0.0000000000000000e+00  -3.0552907649424288e-03 -9.6651530712353684e-01 0.0000000000000000e+00  -3.0893735327299551e-03 -9.6803646025211321e-01 0.0000000000000000e+00  -3.1106439339262330e-03 -9.6957009476234568e-01 0.0000000000000000e+00  -3.1193921769869003e-03 -9.7110976304513497e-01 0.0000000000000000e+00  -3.1159840267820718e-03 -9.7264918902535058e-01 0.0000000000000000e+00  -3.1008556234096967e-03 -9.7418230869752198e-01 0.0000000000000000e+00  -3.0745075098392019e-03 -9.7570330722156107e-01 0.0000000000000000e+00  -3.0374984999895546e-03 -9.7720665442286181e-01 0.0000000000000000e+00  -2.9904387794039262e-03 -9.7868713514617534e-01 0.0000000000000000e+00  -2.9339831092129454e-03 -9.8013987720292717e-01 0.0000000000000000e+00  -2.8688232098726309e-03 -9.8156037404969232e-01 0.0000000000000000e+00  -2.7956804362555833e-03 -9.8294450519487819e-01 0.0000000000000000e+00  -2.7152980547996779e-03 -9.8428854931163490e-01 0.0000000000000000e+00  -2.6284334875249192e-03 -9.8558919519365573e-01 0.0000000000000000e+00  -2.5358504769152591e-03 -9.8684354703545285e-01 0.0000000000000000e+00  -2.4383115024000025e-03 -9.8804912553690538e-01 0.0000000000000000e+00  -2.3365700064087130e-03 -9.8920386344237099e-01 0.0000000000000000e+00  -2.2313629657694156e-03 -9.9030609720718532e-01 0.0000000000000000e+00  -2.1234038770752313e-03 -9.9135455470340883e-01 0.0000000000000000e+00  -2.0133757389560409e-03 -9.9234833743439999e-01 0.0000000000000000e+00  -1.9019247040923067e-03 -9.9328689825180483e-01 0.0000000000000000e+00  -1.7896541825297590e-03 -9.9417001427667606e-01 0.0000000000000000e+00  -1.6771192225455472e-03 -9.9499775426263382e-01 0.0000000000000000e+00  -1.5648222438356335e-03 -9.9577043905232909e-01 0.0000000000000000e+00  -1.4532088607770784e-03 -9.9648859002834378e-01 0.0000000000000000e+00  -1.3426651113127674e-03 -9.9715286602512399e-01 0.0000000000000000e+00  -1.2335156490564890e-03 -9.9776397728119004e-01 0.0000000000000000e+00  -1.1260233060313362e-03 -9.9832256845585643e-01 0.0000000000000000e+00  -1.0203900760946010e-03 -9.9882905702923741e-01 0.0000000000000000e+00  -9.1676044490734607e-04 -9.9928341177740521e-01 0.0000000000000000e+00  -8.1522598671611728e-04 -9.9968485297885279e-01 0.0000000000000000e+00  -7.1583432188858983e-04 -1.0000314710421581e+00 0.0000000000000000e+00  -6.1859935611509505e-04 -1.0003197798195640e+00 0.0000000000000000e+00  -5.2352002174915822e-04 -1.0005443047671061e+00 0.0000000000000000e+00  -4.3060115171935162e-04 -1.0006974264802517e+00 0.0000000000000000e+00  -3.3991626377808960e-04 -1.0007700133988167e+00 0.0000000000000000e+00  -2.5173114065974941e-04 -1.0007536838318059e+00 0.0000000000000000e+00  -1.6701086451642073e-04 -1.0006462150112678e+00 0.0000000000000000e+00  -8.8623287690323070e-05 -1.0004606753862055e+00 0.0000000000000000e+00  -2.6572588068042083e-05 -1.0002339753113865e+00 0.0000000000000000e+00  0.0000000000000000e+00 -1.0000000000000000e+00 0.0000000000000000e+00  0.0000000000000000e+00 -9.4404418967795589e-01 0.0000000000000000e+00  -1.9920341550542240e-04 -9.4410265914669766e-01 0.0000000000000000e+00  -3.9748195817946533e-04 -9.4428929733160494e-01 0.0000000000000000e+00  -5.9359793853205954e-04 -9.4459948425661744e-01 0.0000000000000000e+00  -7.8648586584755681e-04 -9.4503048975033499e-01 0.0000000000000000e+00  -9.7508952918148016e-04 -9.4557964091596192e-01 0.0000000000000000e+00  -1.1584082032225285e-03 -9.4624386420439377e-01 0.0000000000000000e+00  -1.3354934562323096e-03 -9.4701954575156244e-01 0.0000000000000000e+00  -1.5054512165775123e-03 -9.4790249170818541e-01 0.0000000000000000e+00  -1.6674453884131951e-03 -9.4888794108646379e-01 0.0000000000000000e+00  -1.8207015174316579e-03 -9.4997059793230010e-01 0.0000000000000000e+00  -1.9645128321270178e-03 -9.5114467499831179e-01 0.0000000000000000e+00  -2.0982445758273805e-03 -9.5240394198700973e-01 0.0000000000000000e+00  -2.2213387568247459e-03 -9.5374177829826279e-01 0.0000000000000000e+00  -2.3333179266799594e-03 -9.5515122726836210e-01 0.0000000000000000e+00  -2.4337876868532416e-03 -9.5662505139044207e-01 0.0000000000000000e+00  -2.5224391730462046e-03 -9.5815579032227660e-01 0.0000000000000000e+00  -2.5990496356894021e-03 -9.5973581873503688e-01 0.0000000000000000e+00  -2.6634833121770471e-03 -9.6135740417294546e-01 0.0000000000000000e+00  -2.7156904580731170e-03 -9.6301276470666652e-01 0.0000000000000000e+00  -2.7557062023063437e-03 -9.6469412682346134e-01 0.0000000000000000e+00  -2.7836485324992505e-03 -9.6639378220345495e-01 0.0000000000000000e+00  -2.7997154422949970e-03 -9.6810414162061142e-01 0.0000000000000000e+00  -2.8041815711507471e-03 -9.6981778731973778e-01 0.0000000000000000e+00  -2.7973943333906848e-03 -9.7152752467333825e-01 0.0000000000000000e+00  -2.7797690427489338e-03 -9.7322642752926269e-01 0.0000000000000000e+00  -2.7517840063597449e-03 -9.7490788268310935e-01 0.0000000000000000e+00  -2.7139747743870728e-03 -9.7656562985252149e-01 0.0000000000000000e+00  -2.6669285069301214e-03 -9.7819379819204666e-01 0.0000000000000000e+00  -2.6112772985666332e-03 -9.7978693698372044e-01 0.0000000000000000e+00  -2.5476916199136542e-03 -9.8134004229125449e-01 0.0000000000000000e+00  -2.4768733896678567e-03 -9.8284858039715195e-01 0.0000000000000000e+00  -2.3995488328364249e-03 -9.8430850261134650e-01 0.0000000000000000e+00  -2.3164609838932241e-03 -9.8571625690860409e-01 0.0000000000000000e+00  -2.2283624229164946e-03 -9.8706879624979249e-01 0.0000000000000000e+00  -2.1360078913487323e-03 -9.8836357710301292e-01 0.0000000000000000e+00  -2.0401465721199227e-03 -9.8959855584425904e-01 0.0000000000000000e+00  -1.9415148635924095e-03 -9.9077217881472135e-01 0.0000000000000000e+00  -1.8408291268715044e-03 -9.9188336669673294e-01 0.0000000000000000e+00  -1.7387787941109932e-03 -9.9293149369076583e-01 0.0000000000000000e+00  -1.6360195392635807e-03 -9.9391636119054938e-01 0.0000000000000000e+00  -1.5331671420644824e-03 -9.9483816636450662e-01 0.0000000000000000e+00  -1.4307915363002809e-03 -9.9569746284709437e-01 0.0000000000000000e+00  -1.3294112973539416e-03 -9.9649511407700453e-01 0.0000000000000000e+00  -1.2294885792764607e-03 -9.9723223876569211e-01 0.0000000000000000e+00  -1.1314240158137475e-03 -9.9791014000570744e-01 0.0000000000000000e+00  -1.0355515824553407e-03 -9.9853021662459551e-01 0.0000000000000000e+00  -9.4213222342206453e-04 -9.9909384816003077e-01 0.0000000000000000e+00  -8.5134629214688514e-04 -9.9960223880829591e-01 0.0000000000000000e+00  -7.6328290919807252e-04 -1.0000562084927831e+00 0.0000000000000000e+00  -6.7792603171622635e-04 -1.0004559086383606e+00 0.0000000000000000e+00  -5.9513911088479089e-04 -1.0008004434691087e+00 0.0000000000000000e+00  -5.1464930317490190e-04 -1.0010873781055765e+00 0.0000000000000000e+00  -4.3605634519146747e-04 -1.0013121371244305e+00 0.0000000000000000e+00  -3.5887439200920935e-04 -1.0014673052261258e+00 0.0000000000000000e+00  -2.8273864690320265e-04 -1.0015419440830906e+00 0.0000000000000000e+00  -2.0775821953057202e-04 -1.0015209148898778e+00 0.0000000000000000e+00  -1.3551257544640733e-04 -1.0013844988099005e+00 0.0000000000000000e+00  -7.0178774932646825e-05 -1.0011074067085846e+00 0.0000000000000000e+00  -2.0808769713060384e-05 -1.0006590718142645e+00 0.0000000000000000e+00  0.0000000000000000e+00 -1.0000000000000000e+00 0.0000000000000000e+00  0.0000000000000000e+00 -9.4027209217390917e-01 0.0000000000000000e+00  -1.7685623890539100e-04 -9.4033460824512838e-01 0.0000000000000000e+00  -3.5294653948700089e-04 -9.4054096228205020e-01 0.0000000000000000e+00  -5.2708770955081272e-04 -9.4088481126839030e-01 0.0000000000000000e+00  -6.9835046208824704e-04 -9.4136308163867854e-01 0.0000000000000000e+00  -8.6581284045598843e-04 -9.4197267799219686e-01 0.0000000000000000e+00  -1.0285772814796986e-03 -9.4271000098592128e-01 0.0000000000000000e+00  -1.1857799441670756e-03 -9.4357084344465414e-01 0.0000000000000000e+00  -1.3366014318768587e-03 -9.4455036435135720e-01 0.0000000000000000e+00  -1.4802731578782606e-03 -9.4564309942357938e-01 0.0000000000000000e+00  -1.6160830819903582e-03 -9.4684299081049217e-01 0.0000000000000000e+00  -1.7433803384459300e-03 -9.4814343323095385e-01 0.0000000000000000e+00  -1.8615797699601745e-03 -9.4953732644799327e-01 0.0000000000000000e+00  -1.9701654483172998e-03 -9.5101713379105279e-01 0.0000000000000000e+00  -2.0686939633954948e-03 -9.5257494293373568e-01 0.0000000000000000e+00  -2.1567970221165623e-03 -9.5420253112402453e-01 0.0000000000000000e+00  -2.2341833304098738e-03 -9.5589143059626347e-01 0.0000000000000000e+00  -2.3006398299184388e-03 -9.5763299507233368e-01 0.0000000000000000e+00  -2.3560324389759776e-03 -9.5941846707845946e-01 0.0000000000000000e+00  -2.4003055061509572e-03 -9.6123904418547901e-01 0.0000000000000000e+00  -2.4334818102164520e-03 -9.6308594446559193e-01 0.0000000000000000e+00  -2.4556604846623091e-03 -9.6495047115863275e-01 0.0000000000000000e+00  -2.4670154526423619e-03 -9.6682407485705235e-01 0.0000000000000000e+00  -2.4677927377193768e-03 -9.6869841289432335e-01 0.0000000000000000e+00  -2.4583073324916790e-03 -9.7056540672575020e-01 0.0000000000000000e+00  -2.4389395493137310e-03 -9.7241729551541167e-01 0.0000000000000000e+00  -2.4101308952827740e-03 -9.7424668462695352e-01 0.0000000000000000e+00  -2.3723794104122085e-03 -9.7604659290873086e-01 0.0000000000000000e+00  -2.3262347059745617e-03 -9.7781049172689105e-01 0.0000000000000000e+00  -2.2722923490334748e-03 -9.7953234243372511e-01 0.0000000000000000e+00  -2.2111881602781655e-03 -9.8120662641362710e-01 0.0000000000000000e+00  -2.1435919596869348e-03 -9.8282837095001219e-01 0.0000000000000000e+00  -2.0702011474640269e-03 -9.8439316871364879e-01 0.0000000000000000e+00  -1.9917338028972542e-03 -9.8589719254661645e-01 0.0000000000000000e+00  -1.9089219361086596e-03 -9.8733720279018056e-01 0.0000000000000000e+00  -1.8225039903463265e-03 -9.8871054950750692e-01 0.0000000000000000e+00  -1.7332177390144033e-03 -9.9001516958694424e-01 0.0000000000000000e+00  -1.6417927853881905e-03 -9.9124957567863548e-01 0.0000000000000000e+00  -1.5489433133516750e-03 -9.9241284008991881e-01 0.0000000000000000e+00  -1.4553605439060902e-03 -9.9350457260148883e-01 0.0000000000000000e+00  -1.3617054915954321e-03 -9.9452489201605609e-01 0.0000000000000000e+00  -1.2686020088133734e-03 -9.9547439160414208e-01 0.0000000000000000e+00  -1.1766296437209195e-03 -9.9635409615034554e-01 0.0000000000000000e+00  -1.0863170354941634e-03 -9.9716541553086790e-01 0.0000000000000000e+00  -9.9813502481616002e-04 -9.9791008580917706e-01 0.0000000000000000e+00  -9.1249009949301860e-04 -9.9859010253266156e-01 0.0000000000000000e+00  -8.2971701765373405e-04 -9.9920763895334574e-01 0.0000000000000000e+00  -7.5007075781199082e-04 -9.9976494350289935e-01 0.0000000000000000e+00  -6.7371687735691410e-04 -1.0002642071090511e+00 0.0000000000000000e+00  -6.0072019251228574e-04 -1.0007073823239423e+00 0.0000000000000000e+00  -5.3103077644545745e-04 -1.0010959248627187e+00 0.0000000000000000e+00  -4.6447068293731703e-04 -1.0014304130204197e+00 0.0000000000000000e+00  -4.0072026016904584e-04 -1.0017099610355544e+00 0.0000000000000000e+00  -3.3933201012699264e-04 -1.0019313207824143e+00 0.0000000000000000e+00  -2.7975157285545080e-04 -1.0020874450258965e+00 0.0000000000000000e+00  -2.2150128705391279e-04 -1.0021653389718210e+00 0.0000000000000000e+00  -1.6433133330176421e-04 -1.0021426544901966e+00 0.0000000000000000e+00  -1.0910193559908685e-04 -1.0019833323226530e+00 0.0000000000000000e+00  -5.8067155982476032e-05 -1.0016313679460451e+00 0.0000000000000000e+00  -1.8401514997366406e-05 -1.0010083461923647e+00 0.0000000000000000e+00  0.0000000000000000e+00 -1.0000000000000000e+00 0.0000000000000000e+00  0.0000000000000000e+00 -9.3702334412963051e-01 0.0000000000000000e+00  -1.4518469094811136e-04 -9.3709316591099834e-01 0.0000000000000000e+00  -2.8973522796132023e-04 -9.3731771028186850e-01 0.0000000000000000e+00  -4.3267446266608754e-04 -9.3769101649481201e-01 0.0000000000000000e+00  -5.7325362369135076e-04 -9.3821005449940498e-01 0.0000000000000000e+00  -7.1073684991932850e-04 -9.3887159534664089e-01 0.0000000000000000e+00  -8.4439404900204249e-04 -9.3967176035455768e-01 0.0000000000000000e+00  -9.7351500278518180e-04 -9.4060594257434560e-01 0.0000000000000000e+00  -1.0974199677729519e-03 -9.4166880524398522e-01 0.0000000000000000e+00  -1.2154668431983739e-03 -9.4285431088567928e-01 0.0000000000000000e+00  -1.3270568963183861e-03 -9.4415576442001237e-01 0.0000000000000000e+00  -1.4316393436827855e-03 -9.4556586751209493e-01 0.0000000000000000e+00  -1.5287153265865689e-03 -9.4707677835576543e-01 0.0000000000000000e+00  -1.6178412460940007e-03 -9.4868017645295455e-01 0.0000000000000000e+00  -1.6986316443976868e-03 -9.5036733098708548e-01 0.0000000000000000e+00  -1.7707615610397347e-03 -9.5212917119920948e-01 0.0000000000000000e+00  -1.8339684907734783e-03 -9.5395635955723379e-01 0.0000000000000000e+00  -1.8880537233628375e-03 -9.5583936407420478e-01 0.0000000000000000e+00  -1.9328834817791995e-03 -9.5776853308390930e-01 0.0000000000000000e+00  -1.9683892747973889e-03 -9.5973416793025901e-01 0.0000000000000000e+00  -1.9945678962628288e-03 -9.6172659528792814e-01 0.0000000000000000e+00  -2.0114809972424531e-03 -9.6373623802078923e-01 0.0000000000000000e+00  -2.0192540293236328e-03 -9.6575368384848559e-01 0.0000000000000000e+00  -2.0180749022161841e-03 -9.6776975113044672e-01 0.0000000000000000e+00  -2.0081919823108658e-03 -9.6977555196518761e-01 0.0000000000000000e+00  -1.9899119210677191e-03 -9.7176255109056697e-01 0.0000000000000000e+00  -1.9635966409987000e-03 -9.7372262095164508e-01 0.0000000000000000e+00  -1.9296602859561302e-03 -9.7564809308090228e-01 0.0000000000000000e+00  -1.8885655091370438e-03 -9.7753180322687605e-01 0.0000000000000000e+00  -1.8408193932629702e-03 -9.7936713288374977e-01 0.0000000000000000e+00  -1.7869688935054542e-03 -9.8114804455023052e-01 0.0000000000000000e+00  -1.7275961181427179e-03 -9.8286911103142849e-01 0.0000000000000000e+00  -1.6633129269420708e-03 -9.