<?xml version="1.0"?>
<VTKFile type="UnstructuredGrid"  version="0.1"  >
<UnstructuredGrid>
<Piece  NumberOfPoints="5028" NumberOfCells="9798">
<Points>
<DataArray  type="Float64"  NumberOfComponents="3"  format="ascii">0 1 0  0 0 0  1 0 0  1 1 0  0.5 1 0  0.5 0 0  0 0.5 0  1 0.5 0  0.5 0.5 0  0 0.25 0  0.25 0 0  0.25 1 0  0 0.75 0  1 0.25 0  0.75 0 0  1 0.75 0  0.75 1 0  0.7083333333333333 0.2916666666666667 0  0.2916666666666666 0.7083333333333334 0  0.375 0.25 0  0.75 0.625 0  0.2569444444444444 0.4652777777777778 0  0.5366379310344828 0.7535919540229885 0  0.1875 0.1875 0  0.8125 0.8125 0  0.869047619047619 0.375 0  0.1450441919191919 0.6052714646464646 0  0.375 0.8690476190476191 0  0.5526960784313725 0.1825980392156862 0  0.8385416666666666 0.1614583333333334 0  0.1614583333333333 0.8385416666666667 0  0.6736111111111112 0.4652777777777778 0  0.1367521367521368 0.3477564102564102 0  0.6570970491253563 0.8648656830417855 0  0.5102479397556124 0.3386260301221938 0  0.3654513888888889 0.5737847222222222 0  0.6929750044954185 0.1362784921584263 0  0.388576102743835 0.411911725237599 0  0.6091269841269842 0.5942460317460317 0  0.875 0.6875 0  0.427278890279516 0.119889445139758 0  0.8544456845238095 0.5213913690476191 0  0.125 0 0  0 0.125 0  1 0.875 0  0.875 1 0  0.1280008648150532 0.4769292340226777 0  0.2695382451711197 0.3321750950221553 0  0.7031567235715964 0.7447810921428012 0  0.625 0 0  0.375 0 0  0.125 1 0  0.875 0 0  0 0.375 0  0 0.625 0  1 0.375 0  0.375 1 0  1 0.125 0  0 0.875 0  0.625 1 0  1 0.625 0  0.2979288363930608 0.1201429454643536 0  0.410919540229885 0.7484605911330049 0  0.5325041980395562 0.878905151526474 0  0.4831670727569156 0.6331060043826487 0  0.1735997378973042 0.7204747378973043 0  0.2534919507575758 0.5772372159090909 0  0.2633928571428572 0.8876488095238095 0  0.8199404761904761 0.2730654761904762 0  0.75830270586982 0.3919383189517417 0  0.5750282248382511 0.4237522353023667 0  0.6008360210023379 0.2794828358598495 0  0.08163442644334186 0.6821295860397322 0  0.08333333333333333 0.1875 0  0.2028380815996574 0.08844602719988583 0  0.2766521142611967 0.2325436572164097 0  0.90625 0.78125 0  0.890625 0.890625 0  0.7545696325008384 0.8973565441669461 0  0.5625 0.08086590340834317 0  0.09077380952380953 0.09077380952380952 0  0.4610923478694773 0.209034015149656 0  0.7542527598351648 0.5248380520595106 0  0.6459235536037465 0.3619913988405765 0  0.7560381768882634 0.20506142233852 0  0.07073252688172042 0.8125 0  0.0924753097241701 0.9078102849914793 0  0.9292674731182795 0.1875 0  0.9075246902758297 0.09218971500852073 0  0.8125 0.07073252688172045 0  0.2400955776842301 0.7869705776842302 0  0.9121050213379069 0.2781978201831695 0  0.7916878157143976 0.7239689078571988 0  0.9345238095238094 0.4375 0  0.4375 0.9345238095238095 0  0.3725616989755203 0.6651895248862173 0  0.06536271996350887 0.5625 0  0.9348362560379583 0.5625 0  0.456646798987055 0.8277247094351965 0  0.1875 0.9355758238725954 0  0.6169761231634859 0.6939779188977889 0  0.6226854751147515 0.7827911461419014 0  0.3305695598137626 0.7901697871282585 0  0.5865305325818898 0.5101085479043448 0  0.6622701297028378 0.2177663989757395 0  0.1354166666666667 0.2591702279202279 0  0 0.3125 0  0.2094429575680048 0.3936361846162499 0  0.836666296419157 0.607917407161686 0  0.6875 1 0  0.214261555450504 0.6492551722020035 0  0 0.4375 0  0.07731537126068377 0.40625 0  0.3427725432967068 0.4879566233699599 0  0.3550792513951871 0.3331953632609953 0  0.4462473953896857 0.2887834789342508 0  0.4747801464819794 0.417386052030127 0  0.8229836475148948 0.4443292349237342 0  0.7322605135514757 0.8199240278289671 0  0.6756431877205955 0.5468989748126787 0  0.1968419507215863 0.5194573482612496 0  0.3285590277777778 0.9345238095238095 0  0.8125 1 0  0.4198917601920009 0.5134893045331258 0  0.5232405503206691 0.2595791787880157 0  1 0.9375 0  0.1987510870015086 0.3025185951894431 0  0.5625 1 0  0.6005390654136388 0.9228110509230952 0  0.6411254848194414 0.07704872765442942 0  0.3357233162523242 0.1855113224530532 0  0.6730653396610877 0.6393887462324165 0  0.310966987234063 0.6240019765311626 0  0.7368737836204349 0.07457755202327881 0  0.6192316414418171 0.1485238406378594 0  0.5432429670607106 0.678552703844006 0  0.4754371679695679 0.7103946803120881 0  0.07501324890749672 0.3043839897335739 0  0.5358146975860403 0.5688321463205916 0  0.3115271739500156 0.3982137365971444 0  0.3625191397122174 0.0767854603650549 0  0.5024029442563831 0.1264128223758444 0  0.4375 0 0  0.4699946908887376 0.06379961173775725 0  0.9375 0.71875 0  0.9272105898044465 0.635671179608893 0  0.9375 1 0  0.6690971819568612 0.9331530898202766 0  0.1073454944778885 0.7499206387638554 0  0.8699082999280406 0.2232403652524313 0  0.5773118091863964 0.3548027349159383 0  0.1354166666666667 0.1428571428571428 0  0.3125 0 0  0.8241684193077341 0.9257452995055244 0  0.4352314948354036 0.3586940847489378 0  0.4351301473778832 0.5819726043539077 0  0.8073232928518163 0.3419398170341962 0  0.7775949246947366 0.1298519409204575 0  0.6875 0 0  0.7413513991851041 0.457933324954483 0  0.939453125 0.841796875 0  0.5630355154606987 0.8171875156478349 0  0.9345238095238095 0.3461466592368577 0  0.9375 0 0  1 0.0625 0  0.0625 1 0  0 0.9375 0  0.06552178593177167 0.4969053669623468 0  0.1424866619031703 0.4130277709291224 0  0.1275287182444726 0.5422946908002588 0  0.2637686595586339 0.06413888464529549 0  0.2524263535491086 0.1697437503243817 0  0.7367218397988525 0.6888573970660841 0  0.0625 0 0  0 0.0625 0  0.8463594539285995 0.7578283617857982 0  0.3128751192101563 0.2851997374369947 0  0.4015281788351144 0.1806421385113692 0  0.1910251795116588 0.4553332197174453 0  0.287797471442006 0.5222621440543902 0  0.3962628745986055 0.8097380085535307 0  0.3505895299554843 0.7304878890838692 0  0.5019151500495276 0.9356042615328103 0  0.9374389419410134 0.4999931039076005 0  0.3125 1 0  0.1875 1 0  1 0.5625 0  0.4375 1 0  1 0.3125 0  1 0.4375 0  0.8125 0 0  1 0.1875 0  0.5625 0 0  0.1875 0 0  0 0.1875 0  0 0.5625 0  0 0.6875 0  0 0.8125 0  1 0.6875 0  1 0.8125 0  0.8021696218581627 0.6612893947866073 0  0.06154922295426143 0.6239401126946708 0  0.9359375 0.9359375 0  0.4666158024849896 0.7691515918155014 0  0.2318201265217025 0.7064974250277525 0  0.1565954253579966 0.6635489312486841 0  0.1598132503680848 0.7787147500325552 0  0.3146529991605639 0.8510876378205265 0  0.1461873209418733 0.05982804528877814 0  0.06109554988524315 0.2446551776247686 0  0.8054950308560754 0.5564226538848541 0  0.470541749491976 0.8853316336952531 0  0.6948472567465137 0.4042308563372457 0  0.8802828472348889 0.4658893256343853 0  0.6788075634946739 0.7974194205806069 0  0.2155048659603867 0.2428201584940968 0  0.8131223143423806 0.2132171049028394 0  0.4330798005432235 0.6671274900735726 0  0.6015279126162613 0.2187368078743274 0  0.8061636571464289 0.8703766630361714 0  0.7008230445061776 0.3478568388444072 0  0.8638466246958771 0.3147095987735538 0  0.204801534004265 0.8789209409594009 0  0.2449006736431132 0.9424182882803838 0  0.7611268409371427 0.2643056884799992 0  0.7552800864046191 0.7678006649959446 0  0.5983639638906616 0.864113435029236 0  0.1956559506814437 0.577281203577426 0  0.3527670268164207 0.1320469097565204 0  0.7530364577483248 0.3262386077083089 0  0.4535919187979363 0.4690107087451527 0  0.8824869791666666 0.8336588541666666 0  0.8814453125 0.9451171875 0  0.5582987942628019 0.622421666543858 0  0.6817532446064828 0.6939001801354731 0  0.3830295138888889 0.9450968952922078 0  0.4140603937012541 0.05211333372716105 0  0.5535864501303013 0.3060591985391672 0  0.6560130086346878 0.2729726562211558 0  0.890203140221684 0.5948314305427268 0  0.7043857725999024 0.593980890020804 0  0.5105843922695152 0.8016828014338627 0  0.05365910753708378 0.7315110031682004 0  0.616904573672261 0.4621186633436136 0  0.5338511646455415 0.387875898899613 0  0.5231769258947843 0.4477682463140762 0  0.650302973237622 0.7370722302085519 0  0.3927483139621257 0.4662414504529014 0  0.8034595960585199 0.4972538342758211 0  0.7738337841682438 0.9496376207663251 0  0.7193737507158268 0.954685447650112 0  0.482525916480686 0.5528257169991676 0  0.2533501157346781 0.2809495420003238 0  0.3118487924482243 0.5702930126570319 0  0.6257598847669529 0.4104163315430518 0  0.1354166666666667 0.1955605158730158 0  0.04166666666666666 0.15625 0  0.3956448985530264 0.6174149462065157 0  0.8102897701818546 0.3938784238208349 0  0.2641154190013625 0.8344469561943118 0  0.642852220770013 0.5068794586563659 0  0.05271458179508221 0.355846947336007 0  0.7021551360070266 0.8921457280225779 0  0.5692125776683765 0.1328512638850284 0  0.5206162811937602 0.04865158770992991 0  0.6001838442201555 0.04540556991297563 0  0.2597716608242787 0.4118346398477178 0  0.4040584599473195 0.3179589136784675 0  0.1480337679295207 0.8941560631483065 0  0.1344356707112281 0.9466251177415842 0  0.7114696411829317 0.4983917389078826 0  0.7585704698442475 0.5751926345944629 0  0.2189131956390871 0.04022068508159698 0  0.2476935455192043 0.1123642267635843 0  0.185995005654517 0.1365524537205238 0  0.6223414373308711 0.643380839165121 0  0.5732602596637543 0.7190051747306219 0  0.268358222364537 0.6586246524467934 0  0.3265879848129173 0.2369791782191225 0  0.1267095595787346 0.7034787238999181 0  0.1115202922226038 0.6421997933884982 0  0.3128688392940203 0.07260997451790079 0  0.550724900485678 0.9253360991633187 0  0.7142608810459105 0.2384904702214873 0  0.7045869185243887 0.1871826897887429 0  0.890625 0.734375 0  0.953125 0.765625 0  0.2111812642821677 0.8286209446459138 0  0.9590293078204457 0.09375 0  0.953431269039847 0.1435719386408004 0  0.04097069217955424 0.90625 0  0.04656873096015299 0.8564280613591996 0  0.1078743037981226 0.8541621766048062 0  0.8921256962018773 0.1458378233951939 0  0.8521576979194619 0.1084496634207678 0  0.8655663982740958 0.05464346096571447 0  0.04005659640905543 0.09375 0  0.1001448316533417 0.04246776244228261 
[...]
<PointData  Vectors="f_14-0"> 
<DataArray  type="Float64"  Name="f_14-0"  NumberOfComponents="3" format="ascii">0.0000000000000000e+00 -1.5000000000000000e+00 0.0000000000000000e+00  0.0000000000000000e+00 -1.0000000000000000e+00 0.0000000000000000e+00  0.0000000000000000e+00 -1.0000000000000000e+00 0.0000000000000000e+00  0.0000000000000000e+00 -1.0000000000000000e+00 0.0000000000000000e+00  0.0000000000000000e+00 -1.5000000000000000e+00 0.0000000000000000e+00  0.0000000000000000e+00 -1.0000000000000000e+00 0.0000000000000000e+00  0.0000000000000000e+00 -1.3961122745622232e+00 0.0000000000000000e+00  0.0000000000000000e+00 -1.0000000000000000e+00 0.0000000000000000e+00  1.3980492002402188e-02 -1.1535662173590402e+00 0.0000000000000000e+00  0.0000000000000000e+00 -1.2360946951133531e+00 0.0000000000000000e+00  0.0000000000000000e+00 -1.0000000000000000e+00 0.0000000000000000e+00  0.0000000000000000e+00 -1.5000000000000000e+00 0.0000000000000000e+00  0.0000000000000000e+00 -1.4799686720250600e+00 0.0000000000000000e+00  0.0000000000000000e+00 -1.0000000000000000e+00 0.0000000000000000e+00  0.0000000000000000e+00 -1.0000000000000000e+00 0.0000000000000000e+00  0.0000000000000000e+00 -1.0000000000000000e+00 0.0000000000000000e+00  -7.7746543421140712e-03 -5.9327631290753324e-01 0.0000000000000000e+00  1.1567695727504481e-02 -8.9636795489744170e-01 0.0000000000000000e+00  4.8483367864530251e-03 -1.4440261993194954e+00 0.0000000000000000e+00  1.4247534187021823e-02 -1.1375566604407079e+00 0.0000000000000000e+00  1.2390621616675325e-02 -8.0217036596022284e-01 0.0000000000000000e+00  6.9458663041599440e-03 -1.3306695111290605e+00 0.0000000000000000e+00  1.4156719998371030e-02 -1.2508839027299221e+00 0.0000000000000000e+00  9.7313299633885013e-03 -1.1562144055065304e+00 0.0000000000000000e+00  -1.7770834037057230e-04 -6.2060074922860320e-01 0.0000000000000000e+00  6.2208055999755166e-03 -8.6691031364076510e-01 0.0000000000000000e+00  2.7649890292103163e-03 -1.4307442460663573e+00 0.0000000000000000e+00  2.7587061901715899e-03 -1.4862263682519297e+00 0.0000000000000000e+00  1.6729590784436345e-02 -1.0045530239007230e+00 0.0000000000000000e+00  3.3084328504050433e-03 -9.2786608108816104e-01 0.0000000000000000e+00  9.0739605579795045e-04 -1.4918493584376373e+00 0.0000000000000000e+00  1.3960108338997822e-02 -9.1402319430807011e-01 0.0000000000000000e+00  4.5204886422100261e-03 -1.2978048794640724e+00 0.0000000000000000e+00  1.0861067550929668e-02 -9.1647481462343661e-01 0.0000000000000000e+00  1.4153930174452422e-02 -1.0746337958499312e+00 0.0000000000000000e+00  9.4270420152984865e-03 -1.3335993041484808e+00 0.0000000000000000e+00  1.0903676030267487e-02 -9.4665066565669509e-01 0.0000000000000000e+00  1.1331767891335947e-02 -1.2195473287086811e+00 0.0000000000000000e+00  1.6325131538931146e-02 -1.0261886837997185e+00 0.0000000000000000e+00  2.5234560521473805e-03 -7.2965093087216626e-01 0.0000000000000000e+00  1.7972288879861208e-02 -1.0405237278348551e+00 0.0000000000000000e+00  7.6733295704188237e-03 -8.0219029701111488e-01 0.0000000000000000e+00  0.0000000000000000e+00 -1.0000000000000000e+00 0.0000000000000000e+00  0.0000000000000000e+00 -1.1018021808288603e+00 0.0000000000000000e+00  0.0000000000000000e+00 -1.0000000000000000e+00 0.0000000000000000e+00  7.2789920870497309e-03 -6.7353270228489126e-01 0.0000000000000000e+00  3.2230528636841122e-03 -1.3743910683622578e+00 0.0000000000000000e+00  9.0811368079622180e-03 -1.2447345567686754e+00 0.0000000000000000e+00  1.3158537439858975e-02 -8.2355019615549885e-01 0.0000000000000000e+00  0.0000000000000000e+00 -1.0000000000000000e+00 0.0000000000000000e+00  0.0000000000000000e+00 -1.0000000000000000e+00 0.0000000000000000e+00  0.0000000000000000e+00 -1.5000000000000000e+00 0.0000000000000000e+00  0.0000000000000000e+00 -1.0000000000000000e+00 0.0000000000000000e+00  0.0000000000000000e+00 -1.3288992330091562e+00 0.0000000000000000e+00  0.0000000000000000e+00 -1.4467440023763127e+00 0.0000000000000000e+00  0.0000000000000000e+00 -1.0000000000000000e+00 0.0000000000000000e+00  0.0000000000000000e+00 -1.5000000000000000e+00 0.0000000000000000e+00  0.0000000000000000e+00 -1.0000000000000000e+00 0.0000000000000000e+00  0.0000000000000000e+00 -1.4960720548766959e+00 0.0000000000000000e+00  -1.3050811810665953e-02 -9.9576436079608688e-01 0.0000000000000000e+00  0.0000000000000000e+00 -1.0000000000000000e+00 0.0000000000000000e+00  1.5180705911663282e-02 -1.0706094659857461e+00 0.0000000000000000e+00  8.0590848818970721e-03 -1.4118451462413535e+00 0.0000000000000000e+00  9.4490551891397746e-03 -1.3508598951495889e+00 0.0000000000000000e+00  1.3449650495914036e-02 -1.2546739621646910e+00 0.0000000000000000e+00  2.2134838964298093e-03 -1.4674250152463613e+00 0.0000000000000000e+00  5.7388000131875306e-03 -1.3930382542353470e+00 0.0000000000000000e+00  1.0182780698359084e-03 -1.4957632309347819e+00 0.0000000000000000e+00  7.1570759948497240e-03 -8.7793887660749959e-01 0.0000000000000000e+00  1.0716018050909382e-02 -8.5311922395904782e-01 0.0000000000000000e+00  1.4371699176306329e-02 -1.0288327743648580e+00 0.0000000000000000e+00  1.4337741556091048e-02 -9.7780760652606979e-01 0.0000000000000000e+00  1.1368498392979659e-03 -1.4624739553825987e+00 0.0000000000000000e+00  4.4985841584412479e-03 -1.1704200428117673e+00 0.0000000000000000e+00  1.0440910687634451e-02 -1.0528632868571117e+00 0.0000000000000000e+00  1.2031422431267404e-02 -1.1712140833715987e+00 0.0000000000000000e+00  -2.8615413957461533e-03 -7.3664223728871525e-01 0.0000000000000000e+00  -5.0351810151103215e-03 -7.1179015932578549e-01 0.0000000000000000e+00  1.4160208842136444e-03 -5.8444577938224251e-01 0.0000000000000000e+00  1.4662219081777509e-02 -9.9782408381392407e-01 0.0000000000000000e+00  4.9605598370993705e-03 -1.0608794252397069e+00 0.0000000000000000e+00  1.6794559416836285e-02 -1.0659253910676287e+00 0.0000000000000000e+00  1.2275206144510980e-02 -8.2864603538536163e-01 0.0000000000000000e+00  1.3377658932619637e-02 -9.4070530510000938e-01 0.0000000000000000e+00  8.8876972497489576e-03 -9.0089520488217156e-01 0.0000000000000000e+00  4.5753591921545236e-04 -1.4896523209038215e+00 0.0000000000000000e+00  2.2384801740656579e-04 -1.4979641775082420e+00 0.0000000000000000e+00  9.5219547387340620e-04 -1.0070179385020122e+00 0.0000000000000000e+00  -2.4281696065886899e-03 -9.9648944760341718e-01 0.0000000000000000e+00  3.8068528432366213e-04 -9.7059136136644664e-01 0.0000000000000000e+00  2.3376019123469830e-03 -1.4794295469983785e+00 0.0000000000000000e+00  3.3711910838086865e-03 -9.5056858097544272e-01 0.0000000000000000e+00  6.4684944077908410e-03 -7.0533144101859246e-01 0.0000000000000000e+00  3.1226780662071537e-03 -9.0492662818471570e-01 0.0000000000000000e+00  1.5996427554718314e-03 -1.4947415582574251e+00 0.0000000000000000e+00  8.4001157895514968e-03 -1.3853934329579169e+00 0.0000000000000000e+00  1.3393518043961104e-03 -1.4213790863589657e+00 0.0000000000000000e+00  2.8892433894914288e-03 -8.3281210819541718e-01 0.0000000000000000e+00  7.4945314640633828e-03 -1.4281801975109867e+00 0.0000000000000000e+00  3.0003400611050416e-04 -1.4990377484413038e+00 0.0000000000000000e+00  1.6675314718075873e-02 -1.0378336565994566e+00 0.0000000000000000e+00  1.5474965695506219e-02 -1.0423474274185238e+00 0.0000000000000000e+00  4.0331703674560552e-03 -1.4679171688154942e+00 0.0000000000000000e+00  1.5303546039208247e-02 -1.0377755999859453e+00 0.0000000000000000e+00  1.3150571838061651e-02 -9.3625653674956522e-01 0.0000000000000000e+00  5.8147000477964958e-03 -1.2321715224936045e+00 0.0000000000000000e+00  0.0000000000000000e+00 -1.2869267649090912e+00 0.0000000000000000e+00  6.2628820251000731e-03 -1.3070639753554179e+00 0.0000000000000000e+00  7.6126371451724212e-03 -7.6261213599878608e-01 0.0000000000000000e+00  -1.3350963258992857e-02 -7.5678543430962031e-01 0.0000000000000000e+00  3.8455845337719593e-03 -1.4371081007843860e+00 0.0000000000000000e+00  0.0000000000000000e+00 -1.3647612275221246e+00 0.0000000000000000e+00  2.2213844758104126e-03 -1.3432602394210202e+00 0.0000000000000000e+00  9.4014787133456894e-03 -1.2974717529591429e+00 0.0000000000000000e+00  1.1527765452448541e-02 -1.1989462426286652e+00 0.0000000000000000e+00  1.4370370082276616e-02 -1.1106071664377535e+00 0.0000000000000000e+00  1.3303362793175110e-02 -1.1426647711850790e+00 0.0000000000000000e+00  8.8245897165052344e-03 -8.2644016954964539e-01 0.0000000000000000e+00  7.7479128418746681e-03 -7.0158584479698760e-01 0.0000000000000000e+00  1.5033629471825596e-02 -9.1192296927008321e-01 0.0000000000000000e+00  4.7338200446966090e-03 -1.3809535178955650e+00 0.0000000000000000e+00  6.3865307606099896e-04 -1.4988085581671025e+00 0.0000000000000000e+00  1.0731107095057286e-03 -5.6185458001693267e-01 0.0000000000000000e+00  1.1731621340672018e-02 -1.2505647047042194e+00 0.0000000000000000e+00  1.5452764037567993e-02 -1.0392467967086003e+00 0.0000000000000000e+00  0.0000000000000000e+00 -1.0000000000000000e+00 0.0000000000000000e+00  7.3558309132990274e-03 -1.2508171813058988e+00 0.0000000000000000e+00  -7.9761234092499082e-03 -1.2489185718244631e+00 0.0000000000000000e+00  7.0539893930688467e-03 -1.1383150582229742e+00 0.0000000000000000e+00  1.1249931183448136e-02 -9.8313719624655482e-01 0.0000000000000000e+00  1.5469241857456312e-02 -1.1129046384109498e+00 0.0000000000000000e+00  1.5782592440542063e-02 -9.1357271458726674e-01 0.0000000000000000e+00  6.8875529694702809e-03 -1.3949136145689729e+00 0.0000000000000000e+00  5.4537598025483566e-03 -9.6988484469123692e-01 0.0000000000000000e+00  1.4820618411078354e-02 -9.7141348883395640e-01 0.0000000000000000e+00  1.5403014052733454e-02 -1.1882760679012876e+00 0.0000000000000000e+00  1.2101094547669611e-02 -1.3199994853738521e+00 0.0000000000000000e+00  2.8160965567174730e-03 -1.2769453564292568e+00 0.0000000000000000e+00  1.5155646025677014e-02 -1.1388776207996358e+00 0.0000000000000000e+00  9.2900565662590116e-03 -1.2640003497767640e+00 0.0000000000000000e+00  1.4989609387507657e-02 -1.0286870869615079e+00 0.0000000000000000e+00  1.7866062306348091e-02 -1.0190154600812749e+00 0.0000000000000000e+00  0.0000000000000000e+00 -1.0000000000000000e+00 0.0000000000000000e+00  1.4499892360054575e-02 -1.0103812256102456e+00 0.0000000000000000e+00  -4.1894714451983390e-04 -7.8289498763611176e-01 0.0000000000000000e+00  2.1427272773662819e-03 -7.8845714234471531e-01 0.0000000000000000e+00  6.1577844899485387e-03 -8.6081352939767464e-01 0.0000000000000000e+00  2.7924946668967136e-03 -8.4060123437112511e-01 0.0000000000000000e+00  1.0870312240176298e-03 -1.4783305302135694e+00 0.0000000000000000e+00  4.0564089492431225e-03 -9.2287388506897161e-01 0.0000000000000000e+00  1.4131128163952081e-02 -1.0104803823010160e+00 0.0000000000000000e+00  7.7603368534616196e-03 -1.1164889562958999e+00 0.0000000000000000e+00  0.0000000000000000e+00 -1.0000000000000000e+00 0.0000000000000000e+00  -2.8937096410551928e-03 -5.4812603771751678e-01 0.0000000000000000e+00  1.2942309991162070e-02 -1.1525300808462111e+00 0.0000000000000000e+00  1.1935116360042883e-02 -1.2779724075118011e+00 0.0000000000000000e+00  8.4473933775309363e-03 -8.5529932322495328e-01 0.0000000000000000e+00  5.4297134197799054e-03 -9.3401589936463492e-01 0.0000000000000000e+00  0.0000000000000000e+00 -1.0000000000000000e+00 0.0000000000000000e+00  1.2047662330724167e-02 -8.5106805931252594e-01 0.0000000000000000e+00  -3.1008412176342991e-03 -8.2595110970603003e-01 0.0000000000000000e+00  1.3539174205753672e-02 -1.2317392071343110e+00 0.0000000000000000e+00  2.8183815199050869e-03 -9.5363086659406715e-01 0.0000000000000000e+00  0.0000000000000000e+00 -1.0000000000000000e+00 0.0000000000000000e+00  0.0000000000000000e+00 -1.0000000000000000e+00 0.0000000000000000e+00  0.0000000000000000e+00 -1.5000000000000000e+00 0.0000000000000000e+00  0.0000000000000000e+00 -1.4991435353598919e+00 0.0000000000000000e+00  1.5586687814245570e-03 -1.3920685150459564e+00 0.0000000000000000e+00  4.0678922011399251e-03 -1.3367701726621950e+00 0.0000000000000000e+00  2.8129038226538477e-03 -1.4061715104017045e+00 0.0000000000000000e+00  1.1166502148570078e-02 -1.0280609257722695e+00 0.0000000000000000e+00  1.3010444845043928e-02 -1.1250502084986163e+00 0.0000000000000000e+00  1.2160340703806867e-02 -7.8955745453208870e-01 0.0000000000000000e+00  0.0000000000000000e+00 -1.0000000000000000e+00 0.0000000000000000e+00  0.0000000000000000e+00 -1.0332367012788861e+00 0.0000000000000000e+00  2.2364590149105213e-04 -6.7694928936961929e-01 0.0000000000000000e+00  1.1530483474938184e-02 -1.1932131278565450e+00 0.0000000000000000e+00  1.7056578255749185e-02 -1.0828312289020789e+00 0.0000000000000000e+00  5.1093663952792917e-03 -1.3484924644506264e+00 0.0000000000000000e+00  7.3528431321518957e-03 -1.3489755463987065e+00 0.0000000000000000e+00  5.4722668183655836e-03 -1.4560629635778282e+00 0.0000000000000000e+00  6.1669728874585231e-03 -1.4345783093736242e+00 0.0000000000000000e+00  4.3702844996700270e-03 -1.4527688901162519e+00 0.0000000000000000e+00  3.0019531610407722e-03 -8.7236079936903566e-01 0.0000000000000000e+00  0.0000000000000000e+00 -1.5000000000000000e+00 0.0000000000000000e+00  0.0000000000000000e+00 -1.5000000000000000e+00 0.0000000000000000e+00  0.0000000000000000e+00 -1.0000000000000000e+00 0.0000000000000000e+00  0.0000000000000000e+00 -1.5000000000000000e+00 0.0000000000000000e+00  0.0000000000000000e+00 -1.0000000000000000e+00 0.0000000000000000e+00  0.0000000000000000e+00 -1.0000000000000000e+00 0.0000000000000000e+00  0.0000000000000000e+00 -1.0000000000000000e+00 0.0000000000000000e+00  0.0000000000000000e+00 -1.0000000000000000e+00 0.0000000000000000e+00  0.0000000000000000e+00 -1.0000000000000000e+00 0.0000000000000000e+00  0.0000000000000000e+00 -1.0000000000000000e+00 0.0000000000000000e+00  0.0000000000000000e+00 -1.1738281406546291e+00 0.0000000000000000e+00  0.0000000000000000e+00 -1.4234761686287354e+00 0.0000000000000000e+00  0.0000000000000000e+00 -1.4656248593100412e+00 0.0000000000000000e+00  0.0000000000000000e+00 -1.4899420168563893e+00 0.0000000000000000e+00  0.0000000000000000e+00 -1.0000000000000000e+00 0.0000000000000000e+00  0.0000000000000000e+00 -1.0000000000000000e+00 0.0000000000000000e+00  8.2421158639199715e-03 -7.4289987295567017e-01 0.0000000000000000e+00  1.0553848830651899e-03 -1.4449883466057138e+00 0.0000000000000000e+00  -2.0179320542348337e-03 -8.6680082602004593e-01 0.0000000000000000e+00  1.0172285759072327e-02 -1.3750506023969340e+00 0.0000000000000000e+00  3.4513486478550512e-03 -1.4559956441308268e+00 0.0000000000000000e+00  2.4962369013630361e-03 -1.4511435283219758e+00 0.0000000000000000e+00  1.4322071085599291e-03 -1.4823066931622977e+00 0.0000000000000000e+00  2.1900499107550086e-03 -1.4882684578552545e+00 0.0000000000000000e+00  6.4074261640917349e-03 -1.0290838398490296e+00 0.0000000000000000e+00  2.7896171684172887e-03 -1.2289079117570489e+00 0.0000000000000000e+00  1.0002460837531228e-02 -7.9112514625072361e-01 0.0000000000000000e+00  5.5008305139551362e-03 -1.4547566551358624e+00 0.0000000000000000e+00  1.2707348131256790e-02 -8.9423299585432436e-01 0.0000000000000000e+00  6.2734862604035052e-03 -8.3670291595807667e-01 0.0000000000000000e+00  1.3128438681547838e-02 -8.6486935643188168e-01 0.0000000000000000e+00  9.4501909129324612e-03 -1.1996519161911856e+00 0.0000000000000000e+00  6.2981006568988947e-03 -8.9746630134277916e-01 0.0000000000000000e+00  1.0905835087938026e-02 -1.3374981949063640e+00 0.0000000000000000e+00  1.5072345877387204e-02 -9.7519413043104219e-01 0.0000000000000000e+00  -1.8995786700824308e-03 -5.6717397892420152e-01 0.0000000000000000e+00  1.2054667610936093e-02 -8.9396165861685994e-01 0.0000000000000000e+00  5.8820459894027878e-03 -8.8526981212576616e-01 0.0000000000000000e+00  7.9755928851856872e-04 -1.4956173593697379e+00 0.0000000000000000e+00  3.5215950108143698e-04 -1.4992386557572692e+00 0.0000000000000000e+00  9.4526614643676392e-03 -8.8066553785947532e-01 0.0000000000000000e+00  7.8618024803343185e-03 -7.0543015543759557e-01 0.0000000000000000e+00  1.2224161476671953e-02 -1.1418991111420678e+00 0.0000000000000000e+00  4.1826755125761259e-03 -1.4095126447400492e+00 0.0000000000000000e+00  1.6882287099539598e-02 -1.0680558433914367e+00 0.0000000000000000e+00  1.0274668861017052e-02 -8.6821386303126968e-01 0.0000000000000000e+00  1.2795038437399783e-02 -1.1910274448592308e+00 0.0000000000000000e+00  -4.7639935822736202e-03 -6.9151106810607232e-01 0.0000000000000000e+00  -2.1379707729615159e-03 -6.8476132674749779e-01 0.0000000000000000e+00  1.5900246966225717e-02 -1.1291615415174987e+00 0.0000000000000000e+00  1.5251932646870164e-02 -8.8913584260567802e-01 0.0000000000000000e+00  6.5957542346678456e-04 -1.4990944661701942e+00 0.0000000000000000e+00  1.2764195411626100e-02 -1.0116234558152501e+00 0.0000000000000000e+00  1.4547529639388884e-02 -1.0240013109897792e+00 0.0000000000000000e+00  1.3151892107499874e-02 -9.3363986129262988e-01 0.0000000000000000e+00  4.9333808522879219e-03 -7.8006092480737710e-01 0.0000000000000000e+00  1.4597807909751181e-02 -8.6786153438941638e-01 0.0000000000000000e+00  1.1530867711114218e-02 -1.3367490900261769e+00 0.0000000000000000e+00  5.8220895526008411e-04 -1.4757252011737225e+00 0.0000000000000000e+00  1.4665316958157431e-02 -9.8401332572627653e-01 0.0000000000000000e+00  1.4075209451649414e-02 -1.0664916794685455e+00 0.0000000000000000e+00  1.4141857189958478e-02 -1.1008832339035601e+00 0.0000000000000000e+00  1.5862803287195807e-02 -9.5976897175121134e-01 0.0000000000000000e+00  1.1097136987225876e-02 -1.2470598399161241e+00 0.0000000000000000e+00  1.0046381826701891e-02 -8.1185889757602792e-01 0.0000000000000000e+00  -1.8832871683389010e-03 -5.3332205028880386e-01 0.0000000000000000e+00  -2.1785966593986061e-03 -6.4685431535277149e-01 0.0000000000000000e+00  1.3654357275910344e-02 -1.2046924123205329e+00 0.0000000000000000e+00  9.7616803454665512e-03 -1.2165033191009664e+00 0.0000000000000000e+00  7.6189461358094780e-03 -1.3643079337208941e+00 0.0000000000000000e+00  1.4009108816335982e-02 -9.6564545649930034e-01 0.0000000000000000e+00  7.0519194586507695e-03 -1.1730333637596970e+00 0.0000000000000000e+00  2.4120209486037294e-03 -1.1379001969283096e+00 0.0000000000000000e+00  1.0061850376759841e-02 -1.3380512666240414e+00 0.0000000000000000e+00  8.8560636489303599e-03 -8.4103141913974666e-01 0.0000000000000000e+00  1.8635702706189189e-03 -1.4881439124889846e+00 0.0000000000000000e+00  1.5049760459147398e-02 -9.5554246820529298e-01 0.0000000000000000e+00  1.7078272005685341e-03 -1.3148025217015507e+00 0.0000000000000000e+00  5.8199369017551249e-03 -7.3254750534509583e-01 0.0000000000000000e+00  1.6491756933883453e-02 -9.9430718629744963e-01 0.0000000000000000e+00  1.1928589989751034e-02 -1.0026080523174061e+00 0.0000000000000000e+00  9.6560731181708232e-03 -9.9607489625035950e-01 0.0000000000000000e+00  7.5753122850942683e-03 -1.2983575720669323e+00 0.0000000000000000e+00  1.2991769079918929e-02 -1.1567361358503561e+00 0.0000000000000000e+00  4.4634432425767550e-04 -1.4970904803990579e+00 0.0000000000000000e+00  1.6641854901111648e-04 -1.4993763258064008e+00 0.0000000000000000e+00  1.3485115939685507e-02 -8.7128432201290618e-01 0.0000000000000000e+00  1.2245040140198251e-02 -8.1157472130381725e-01 0.0000000000000000e+00  7.0641403552723610e-03 -1.0132056507652236e+00 0.0000000000000000e+00  1.3133957561144554e-02 -1.0714265796295890e+00 0.0000000000000000e+00  1.0428594295334057e-02 -1.1039646948604935e+00 0.0000000000000000e+00  1.6648799844906057e-02 -1.0137205013227903e+00 0.0000000000000000e+00  1.5970634764472840e-02 -1.1496874456077018e+00 0.0000000000000000e+00  5.0726629844305253e-03 -1.4281946561522922e+00 0.0000000000000000e+00  1.3461987585816996e-02 -1.1538168641967728e+00 0.0000000000000000e+00  1.6607937602695806e-03 -1.4660920165005809e+00 0.0000000000000