<?xml version="1.0"?>
<VTKFile type="UnstructuredGrid"  version="0.1"  >
<UnstructuredGrid>
<Piece  NumberOfPoints="3721" NumberOfCells="7200">
<Points>
<DataArray  type="Float64"  NumberOfComponents="3"  format="ascii">0 0 0  0.01666666666666667 0 0  0.03333333333333333 0 0  0.05 0 0  0.06666666666666667 0 0  0.08333333333333333 0 0  0.1 0 0  0.1166666666666667 0 0  0.1333333333333333 0 0  0.15 0 0  0.1666666666666667 0 0  0.1833333333333333 0 0  0.2 0 0  0.2166666666666667 0 0  0.2333333333333333 0 0  0.25 0 0  0.2666666666666667 0 0  0.2833333333333333 0 0  0.3 0 0  0.3166666666666667 0 0  0.3333333333333333 0 0  0.35 0 0  0.3666666666666666 0 0  0.3833333333333334 0 0  0.4 0 0  0.4166666666666667 0 0  0.4333333333333333 0 0  0.45 0 0  0.4666666666666667 0 0  0.4833333333333333 0 0  0.5 0 0  0.5166666666666667 0 0  0.5333333333333333 0 0  0.55 0 0  0.5666666666666667 0 0  0.5833333333333334 0 0  0.6 0 0  0.6166666666666667 0 0  0.6333333333333333 0 0  0.65 0 0  0.6666666666666666 0 0  0.6833333333333333 0 0  0.7 0 0  0.7166666666666667 0 0  0.7333333333333333 0 0  0.75 0 0  0.7666666666666667 0 0  0.7833333333333333 0 0  0.8 0 0  0.8166666666666667 0 0  0.8333333333333334 0 0  0.85 0 0  0.8666666666666667 0 0  0.8833333333333333 0 0  0.9 0 0  0.9166666666666666 0 0  0.9333333333333333 0 0  0.95 0 0  0.9666666666666667 0 0  0.9833333333333333 0 0  1 0 0  0 0.01666666666666667 0  0.01666666666666667 0.01666666666666667 0  0.03333333333333333 0.01666666666666667 0  0.05 0.01666666666666667 0  0.06666666666666667 0.01666666666666667 0  0.08333333333333333 0.01666666666666667 0  0.1 0.01666666666666667 0  0.1166666666666667 0.01666666666666667 0  0.1333333333333333 0.01666666666666667 0  0.15 0.01666666666666667 0  0.1666666666666667 0.01666666666666667 0  0.1833333333333333 0.01666666666666667 0  0.2 0.01666666666666667 0  0.2166666666666667 0.01666666666666667 0  0.2333333333333333 0.01666666666666667 0  0.25 0.01666666666666667 0  0.2666666666666667 0.01666666666666667 0  0.2833333333333333 0.01666666666666667 0  0.3 0.01666666666666667 0  0.3166666666666667 0.01666666666666667 0  0.3333333333333333 0.01666666666666667 0  0.35 0.01666666666666667 0  0.3666666666666666 0.01666666666666667 0  0.3833333333333334 0.01666666666666667 0  0.4 0.01666666666666667 0  0.4166666666666667 0.01666666666666667 0  0.4333333333333333 0.01666666666666667 0  0.45 0.01666666666666667 0  0.4666666666666667 0.01666666666666667 0  0.4833333333333333 0.01666666666666667 0  0.5 0.01666666666666667 0  0.5166666666666667 0.01666666666666667 0  0.5333333333333333 0.01666666666666667 0  0.55 0.01666666666666667 0  0.5666666666666667 0.01666666666666667 0  0.5833333333333334 0.01666666666666667 0  0.6 0.01666666666666667 0  0.6166666666666667 0.01666666666666667 0  0.6333333333333333 0.01666666666666667 0  0.65 0.01666666666666667 0  0.6666666666666666 0.01666666666666667 0  0.6833333333333333 0.01666666666666667 0  0.7 0.01666666666666667 0  0.7166666666666667 0.01666666666666667 0  0.7333333333333333 0.01666666666666667 0  0.75 0.01666666666666667 0  0.7666666666666667 0.01666666666666667 0  0.7833333333333333 0.01666666666666667 0  0.8 0.01666666666666667 0  0.8166666666666667 0.01666666666666667 0  0.8333333333333334 0.01666666666666667 0  0.85 0.01666666666666667 0  0.8666666666666667 0.01666666666666667 0  0.8833333333333333 0.01666666666666667 0  0.9 0.01666666666666667 0  0.9166666666666666 0.01666666666666667 0  0.9333333333333333 0.01666666666666667 0  0.95 0.01666666666666667 0  0.9666666666666667 0.01666666666666667 0  0.9833333333333333 0.01666666666666667 0  1 0.01666666666666667 0  0 0.03333333333333333 0  0.01666666666666667 0.03333333333333333 0  0.03333333333333333 0.03333333333333333 0  0.05 0.03333333333333333 0  0.06666666666666667 0.03333333333333333 0  0.08333333333333333 0.03333333333333333 0  0.1 0.03333333333333333 0  0.1166666666666667 0.03333333333333333 0  0.1333333333333333 0.03333333333333333 0  0.15 0.03333333333333333 0  0.1666666666666667 0.03333333333333333 0  0.1833333333333333 0.03333333333333333 0  0.2 0.03333333333333333 0  0.2166666666666667 0.03333333333333333 0  0.2333333333333333 0.03333333333333333 0  0.25 0.03333333333333333 0  0.2666666666666667 0.03333333333333333 0  0.2833333333333333 0.03333333333333333 0  0.3 0.03333333333333333 0  0.3166666666666667 0.03333333333333333 0  0.3333333333333333 0.03333333333333333 0  0.35 0.03333333333333333 0  0.3666666666666666 0.03333333333333333 0  0.3833333333333334 0.03333333333333333 0  0.4 0.03333333333333333 0  0.4166666666666667 0.03333333333333333 0  0.4333333333333333 0.03333333333333333 0  0.45 0.03333333333333333 0  0.4666666666666667 0.03333333333333333 0  0.4833333333333333 0.03333333333333333 0  0.5 0.03333333333333333 0  0.5166666666666667 0.03333333333333333 0  0.5333333333333333 0.03333333333333333 0  0.55 0.03333333333333333 0  0.5666666666666667 0.03333333333333333 0  0.5833333333333334 0.03333333333333333 0  0.6 0.03333333333333333 0  0.6166666666666667 0.03333333333333333 0  0.6333333333333333 0.03333333333333333 0  0.65 0.03333333333333333 0  0.6666666666666666 0.03333333333333333 0  0.6833333333333333 0.03333333333333333 0  0.7 0.03333333333333333 0  0.7166666666666667 0.03333333333333333 0  0.7333333333333333 0.03333333333333333 0  0.75 0.03333333333333333 0  0.7666666666666667 0.03333333333333333 0  0.7833333333333333 0.03333333333333333 0  0.8 0.03333333333333333 0  0.8166666666666667 0.03333333333333333 0  0.8333333333333334 0.03333333333333333 0  0.85 0.03333333333333333 0  0.8666666666666667 0.03333333333333333 0  0.8833333333333333 0.03333333333333333 0  0.9 0.03333333333333333 0  0.9166666666666666 0.03333333333333333 0  0.9333333333333333 0.03333333333333333 0  0.95 0.03333333333333333 0  0.9666666666666667 0.03333333333333333 0  0.9833333333333333 0.03333333333333333 0  1 0.03333333333333333 0  0 0.05 0  0.01666666666666667 0.05 0  0.03333333333333333 0.05 0  0.05 0.05 0  0.06666666666666667 0.05 0  0.08333333333333333 0.05 0  0.1 0.05 0  0.1166666666666667 0.05 0  0.1333333333333333 0.05 0  0.15 0.05 0  0.1666666666666667 0.05 0  0.1833333333333333 0.05 0  0.2 0.05 0  0.2166666666666667 0.05 0  0.2333333333333333 0.05 0  0.25 0.05 0  0.2666666666666667 0.05 0  0.2833333333333333 0.05 0  0.3 0.05 0  0.3166666666666667 0.05 0  0.3333333333333333 0.05 0  0.35 0.05 0  0.3666666666666666 0.05 0  0.3833333333333334 0.05 0  0.4 0.05 0  0.4166666666666667 0.05 0  0.4333333333333333 0.05 0  0.45 0.05 0  0.4666666666666667 0.05 0  0.4833333333333333 0.05 0  0.5 0.05 0  0.5166666666666667 0.05 0  0.5333333333333333 0.05 0  0.55 0.05 0  0.5666666666666667 0.05 0  0.5833333333333334 0.05 0  0.6 0.05 0  0.6166666666666667 0.05 0  0.6333333333333333 0.05 0  0.65 0.05 0  0.6666666666666666 0.05 0  0.6833333333333333 0.05 0  0.7 0.05 0  0.7166666666666667 0.05 0  0.7333333333333333 0.05 0  0.75 0.05 0  0.7666666666666667 0.05 0  0.7833333333333333 0.05 0  0.8 0.05 0  0.8166666666666667 0.05 0  0.8333333333333334 0.05 0  0.85 0.05 0  0.8666666666666667 0.05 0  0.8833333333333333 0.05 0  0.9 0.05 0  0.9166666666666666 0.05 0  0.9333333333333333 0.05 0  0.95 0.05 0  0.9666666666666667 0.05 0  0.9833333333333333 0.05 0  1 0.05 0  0 0.06666666666666667 0  0.01666666666666667 0.06666666666666667 0  0.03333333333333333 0.06666666666666667 0  0.05 0.06666666666666667 0  0.06666666666666667 0.06666666666666667 0  0.08333333333333333 0.06666666666666667 0  0.1 0.06666666666666667 0  0.1166666666666667 0.06666666666666667 0  0.1333333333333333 0.06666666666666667 0  0.15 0.06666666666666667 0  0.1666666666666667 0.06666666666666667 0  0.1833333333333333 0.06666666666666667 0  0.2 0.06666666666666667 0  0.2166666666666667 0.06666666666666667 0  0.2333333333333333 0.06666666666666667 0  0.25 0.06666666666666667 0  0.2666666666666667 0.06666666666666667 0  0.2833333333333333 0.06666666666666667 0  0.3 0.06666666666666667 0  0.3166666666666667 0.06666666666666667 0  0.3333333333333333 0.06666666666666667 0  0.35 0.06666666666666667 0  0.3666666666666666 0.06666666666666667 0  0.3833333333333334 0.06666666666666667 0  0.4 0.06666666666666667 0  0.4166666666666667 0.06666666666666667 0  0.4333333333333333 0.06666666666666667 0  0.45 0.06666666666666667 0  0.4666666666666667 0.06666666666666667 0  0.4833333333333333 0.06666666666666667 0  0.5 0.06666666666666667 0  0.5166666666666667 0.06666666666666667 0  0.5333333333333333 0.06666666666666667 0  0.55 0.06666666666666667 0  0.5666666666666667 0.06666666666666667 0  0.5833333333333334 0.06666666666666667 0  0.6 0.06666666666666667 0  0.6166666666666667 0.06666666666666667 0  0.6333333333333333 0.06666666666666667 0  0.65 0.06666666666666667 0  0.6666666666666666 0.06666666666666667 0  0.6833333333333333 0.06666666666666667 0  0.7 0.06666666666666667 0  0.7166666666666667 0.06666666666666667 0  0.7333333333333333 0.06666666666666667 0  0.75 0.06666666666666667 0  0.7666666666666667 0.06666666666666667 0  0.7833333333333333 0.06666666666666667 0  0.8 0.06666666666666667 0  0.8166666666666667 0.06666666666666667 0  0.8333333333333334 0.06666666666666667 0  0.85 0.06666666666666667 0  0.8666666666666667 0.06666666666666667 0  0.8833333333333333 0.06666666666666667 0  0.9 0.06666666666666667 0  0.9166666666666666 0.06666666666666667 0  0.9333333333333333 0.06666666666666667 0  0.95 0.06666666666666667 0  0.9666666666666667 0.06666666666666667 0  0.9833333333333333 0.06666666666666667 0  1 0.06666666666666667 0  0 0.08333333333333333 0  0.01666666666666667 0.08333333333333333 0  0.03333333333333333 0.08333333333333333 0  0.05 0.08333333333333333 0  0.06666666666666667 0.08333333333333333 0  0.08333333333333333 0.08333333333333333 0  0.1 0.08333333333333333 0  0.1166666666666667 0.08333333333333333 0  0.1333333333333333 0.08333333333333333 0  0.15 0.08333333333333333 0  0.1666666666666667 0.08333333333333333 0  0.1833333333333333 0.08333333333333333 0  0.2 0.08333333333333333 0  0.2166666666666667 0.083333333333
[...]
<PointData  Vectors="f_5-0"> 
<DataArray  type="Float64"  Name="f_5-0"  NumberOfComponents="3" format="ascii">0.0000000000000000e+00 -1.0000000000000000e+00 0.0000000000000000e+00  0.0000000000000000e+00 -1.0000000000000000e+00 0.0000000000000000e+00  0.0000000000000000e+00 -1.0000000000000000e+00 0.0000000000000000e+00  0.0000000000000000e+00 -1.0000000000000000e+00 0.0000000000000000e+00  0.0000000000000000e+00 -1.0000000000000000e+00 0.0000000000000000e+00  0.0000000000000000e+00 -1.0000000000000000e+00 0.0000000000000000e+00  0.0000000000000000e+00 -1.0000000000000000e+00 0.0000000000000000e+00  0.0000000000000000e+00 -1.0000000000000000e+00 0.0000000000000000e+00  0.0000000000000000e+00 -1.0000000000000000e+00 0.0000000000000000e+00  0.0000000000000000e+00 -1.0000000000000000e+00 0.0000000000000000e+00  0.0000000000000000e+00 -1.0000000000000000e+00 0.0000000000000000e+00  0.0000000000000000e+00 -1.0000000000000000e+00 0.0000000000000000e+00  0.0000000000000000e+00 -1.0000000000000000e+00 0.0000000000000000e+00  0.0000000000000000e+00 -1.0000000000000000e+00 0.0000000000000000e+00  0.0000000000000000e+00 -1.0000000000000000e+00 0.0000000000000000e+00  0.0000000000000000e+00 -1.0000000000000000e+00 0.0000000000000000e+00  0.0000000000000000e+00 -1.0000000000000000e+00 0.0000000000000000e+00  0.0000000000000000e+00 -1.0000000000000000e+00 0.0000000000000000e+00  0.0000000000000000e+00 -1.0000000000000000e+00 0.0000000000000000e+00  0.0000000000000000e+00 -1.0000000000000000e+00 0.0000000000000000e+00  0.0000000000000000e+00 -1.0000000000000000e+00 0.0000000000000000e+00  0.0000000000000000e+00 -1.0000000000000000e+00 0.0000000000000000e+00  0.0000000000000000e+00 -1.0000000000000000e+00 0.0000000000000000e+00  0.0000000000000000e+00 -1.0000000000000000e+00 0.0000000000000000e+00  0.0000000000000000e+00 -1.0000000000000000e+00 0.0000000000000000e+00  0.0000000000000000e+00 -1.0000000000000000e+00 0.0000000000000000e+00  0.0000000000000000e+00 -1.0000000000000000e+00 0.0000000000000000e+00  0.0000000000000000e+00 -1.0000000000000000e+00 0.0000000000000000e+00  0.0000000000000000e+00 -1.0000000000000000e+00 0.0000000000000000e+00  0.0000000000000000e+00 -1.0000000000000000e+00 0.0000000000000000e+00  0.0000000000000000e+00 -1.0000000000000000e+00 0.0000000000000000e+00  0.0000000000000000e+00 -1.0000000000000000e+00 0.0000000000000000e+00  0.0000000000000000e+00 -1.0000000000000000e+00 0.0000000000000000e+00  0.0000000000000000e+00 -1.0000000000000000e+00 0.0000000000000000e+00  0.0000000000000000e+00 -1.0000000000000000e+00 0.0000000000000000e+00  0.0000000000000000e+00 -1.0000000000000000e+00 0.0000000000000000e+00  0.0000000000000000e+00 -1.0000000000000000e+00 0.0000000000000000e+00  0.0000000000000000e+00 -1.0000000000000000e+00 0.0000000000000000e+00  0.0000000000000000e+00 -1.0000000000000000e+00 0.0000000000000000e+00  0.0000000000000000e+00 -1.0000000000000000e+00 0.0000000000000000e+00  0.0000000000000000e+00 -1.0000000000000000e+00 0.0000000000000000e+00  0.0000000000000000e+00 -1.0000000000000000e+00 0.0000000000000000e+00  0.0000000000000000e+00 -1.0000000000000000e+00 0.0000000000000000e+00  0.0000000000000000e+00 -1.0000000000000000e+00 0.0000000000000000e+00  0.0000000000000000e+00 -1.0000000000000000e+00 0.0000000000000000e+00  0.0000000000000000e+00 -1.0000000000000000e+00 0.0000000000000000e+00  0.0000000000000000e+00 -1.0000000000000000e+00 0.0000000000000000e+00  0.0000000000000000e+00 -1.0000000000000000e+00 0.0000000000000000e+00  0.0000000000000000e+00 -1.0000000000000000e+00 0.0000000000000000e+00  0.0000000000000000e+00 -1.0000000000000000e+00 0.0000000000000000e+00  0.0000000000000000e+00 -1.0000000000000000e+00 0.0000000000000000e+00  0.0000000000000000e+00 -1.0000000000000000e+00 0.0000000000000000e+00  0.0000000000000000e+00 -1.0000000000000000e+00 0.0000000000000000e+00  0.0000000000000000e+00 -1.0000000000000000e+00 0.0000000000000000e+00  0.0000000000000000e+00 -1.0000000000000000e+00 0.0000000000000000e+00  0.0000000000000000e+00 -1.0000000000000000e+00 0.0000000000000000e+00  0.0000000000000000e+00 -1.0000000000000000e+00 0.0000000000000000e+00  0.0000000000000000e+00 -1.0000000000000000e+00 0.0000000000000000e+00  0.0000000000000000e+00 -1.0000000000000000e+00 0.0000000000000000e+00  0.0000000000000000e+00 -1.0000000000000000e+00 0.0000000000000000e+00  0.0000000000000000e+00 -1.0000000000000000e+00 0.0000000000000000e+00  0.0000000000000000e+00 -9.8577712995856370e-01 0.0000000000000000e+00  -1.6337238121771093e-03 -9.8312610018596636e-01 0.0000000000000000e+00  -3.2420361865883895e-03 -9.8270177092141087e-01 0.0000000000000000e+00  -4.8941729952919838e-03 -9.8225267688994033e-01 0.0000000000000000e+00  -6.5947404112874928e-03 -9.8190679681497950e-01 0.0000000000000000e+00  -8.3403914055190220e-03 -9.8141364736103498e-01 0.0000000000000000e+00  -1.0160246494747803e-02 -9.8092473971774741e-01 0.0000000000000000e+00  -1.2055162183635953e-02 -9.8032446740133283e-01 0.0000000000000000e+00  -1.4037575501746509e-02 -9.7973562826222127e-01 0.0000000000000000e+00  -1.6082908124342484e-02 -9.7930240625474974e-01 0.0000000000000000e+00  -1.8203422101131541e-02 -9.7878719773728229e-01 0.0000000000000000e+00  -2.0371851603954293e-02 -9.7840332129485630e-01 0.0000000000000000e+00  -2.2587640782948080e-02 -9.7810915414664079e-01 0.0000000000000000e+00  -2.4818023886058371e-02 -9.7796320911883161e-01 0.0000000000000000e+00  -2.7053552596984380e-02 -9.7810346728831865e-01 0.0000000000000000e+00  -2.9237647038488461e-02 -9.7837847680966028e-01 0.0000000000000000e+00  -3.1357461044571343e-02 -9.7875563754737160e-01 0.0000000000000000e+00  -3.3401176337795956e-02 -9.7939161087453563e-01 0.0000000000000000e+00  -3.5304231310060455e-02 -9.8030780651439575e-01 0.0000000000000000e+00  -3.7058606232408836e-02 -9.8135792465338989e-01 0.0000000000000000e+00  -3.8613464102063316e-02 -9.8261425602124552e-01 0.0000000000000000e+00  -3.9957801433224645e-02 -9.8397105448206557e-01 0.0000000000000000e+00  -4.1079960152289340e-02 -9.8549204107266097e-01 0.0000000000000000e+00  -4.1934114701221513e-02 -9.8716313535844269e-01 0.0000000000000000e+00  -4.2529241075503640e-02 -9.8896424925527104e-01 0.0000000000000000e+00  -4.2839390928122764e-02 -9.9074792108235732e-01 0.0000000000000000e+00  -4.2871363878321946e-02 -9.9267991953196832e-01 0.0000000000000000e+00  -4.2640031906890322e-02 -9.9445673026715209e-01 0.0000000000000000e+00  -4.2129343897684378e-02 -9.9613725115771301e-01 0.0000000000000000e+00  -4.1368577831915186e-02 -9.9780504374521017e-01 0.0000000000000000e+00  -4.0371731911217859e-02 -9.9938589377816345e-01 0.0000000000000000e+00  -3.9169459022393931e-02 -1.0009239346590317e+00 0.0000000000000000e+00  -3.7761880557216063e-02 -1.0023396979440569e+00 0.0000000000000000e+00  -3.6176385015883730e-02 -1.0035965480968010e+00 0.0000000000000000e+00  -3.4443108670302348e-02 -1.0046832085982418e+00 0.0000000000000000e+00  -3.2583418947361449e-02 -1.0056692127830218e+00 0.0000000000000000e+00  -3.0628957091559595e-02 -1.0065263833330673e+00 0.0000000000000000e+00  -2.8585136493598499e-02 -1.0072438257841578e+00 0.0000000000000000e+00  -2.6476384398718949e-02 -1.0079583989514229e+00 0.0000000000000000e+00  -2.4329944908740093e-02 -1.0084326220943991e+00 0.0000000000000000e+00  -2.2160473960841157e-02 -1.0088096512514486e+00 0.0000000000000000e+00  -1.9991019540428961e-02 -1.0090762522380254e+00 0.0000000000000000e+00  -1.7841861702257343e-02 -1.0092580600723682e+00 0.0000000000000000e+00  -1.5730717702036687e-02 -1.0092877830737201e+00 0.0000000000000000e+00  -1.3677836508537074e-02 -1.0092191721229837e+00 0.0000000000000000e+00  -1.1706008914490898e-02 -1.0090008689910215e+00 0.0000000000000000e+00  -9.8354623103655905e-03 -1.0086420774876805e+00 0.0000000000000000e+00  -8.0910502178183213e-03 -1.0081470814097726e+00 0.0000000000000000e+00  -6.4943838311330750e-03 -1.0075020899653231e+00 0.0000000000000000e+00  -5.0664323444198313e-03 -1.0067320094997680e+00 0.0000000000000000e+00  -3.8236011968032302e-03 -1.0058540939797567e+00 0.0000000000000000e+00  -2.7767915595398236e-03 -1.0049041203193299e+00 0.0000000000000000e+00  -1.9284289433326744e-03 -1.0039382165500146e+00 0.0000000000000000e+00  -1.2714282208997295e-03 -1.0030070294743909e+00 0.0000000000000000e+00  -7.8890256011765979e-04 -1.0021659735868869e+00 0.0000000000000000e+00  -4.5569372075222653e-04 -1.0014593364310209e+00 0.0000000000000000e+00  -2.4115266841640156e-04 -1.0009140570743893e+00 0.0000000000000000e+00  -1.1329357498364391e-04 -1.0005294148824322e+00 0.0000000000000000e+00  -4.3378871134513582e-05 -1.0002799197098167e+00 0.0000000000000000e+00  -9.7854433420969076e-06 -1.0001167478616098e+00 0.0000000000000000e+00  0.0000000000000000e+00 -1.0000000000000000e+00 0.0000000000000000e+00  0.0000000000000000e+00 -9.4678136529931312e-01 0.0000000000000000e+00  -2.1123426383188766e-03 -9.4436168630441542e-01 0.0000000000000000e+00  -4.2221004720644903e-03 -9.4355700189839808e-01 0.0000000000000000e+00  -6.3804538329910246e-03 -9.4239015559292605e-01 0.0000000000000000e+00  -8.6161597074724296e-03 -9.4096406670529464e-01 0.0000000000000000e+00  -1.0962656190078308e-02 -9.3936566784055620e-01 0.0000000000000000e+00  -1.3429837799872538e-02 -9.3747979424698735e-01 0.0000000000000000e+00  -1.6022009953184490e-02 -9.3535403870799672e-01 0.0000000000000000e+00  -1.8743636059928563e-02 -9.3324306427102899e-01 0.0000000000000000e+00  -2.1620522263604541e-02 -9.3119442362349791e-01 0.0000000000000000e+00  -2.4624443875339696e-02 -9.2931426690813279e-01 0.0000000000000000e+00  -2.7749645487167015e-02 -9.2775635814522672e-01 0.0000000000000000e+00  -3.0975999855647186e-02 -9.2637157599903452e-01 0.0000000000000000e+00  -3.4266734728766166e-02 -9.2559046727314409e-01 0.0000000000000000e+00  -3.7592654037687544e-02 -9.2539014572782197e-01 0.0000000000000000e+00  -4.0924162838995172e-02 -9.2583310414713160e-01 0.0000000000000000e+00  -4.4214987660932674e-02 -9.2674841711821199e-01 0.0000000000000000e+00  -4.7388942228364699e-02 -9.2853259729606874e-01 0.0000000000000000e+00  -5.0423866577420928e-02 -9.3101831351299913e-01 0.0000000000000000e+00  -5.3263997142406337e-02 -9.3421473271005551e-01 0.0000000000000000e+00  -5.5854155249097412e-02 -9.3816236354350258e-01 0.0000000000000000e+00  -5.8147362460640117e-02 -9.4255640214997227e-01 0.0000000000000000e+00  -6.0105040374839873e-02 -9.4764992948912130e-01 0.0000000000000000e+00  -6.1680762955347274e-02 -9.5321777377774286e-01 0.0000000000000000e+00  -6.2862406545526245e-02 -9.5900878448933968e-01 0.0000000000000000e+00  -6.3627011117050131e-02 -9.6519404483544380e-01 0.0000000000000000e+00  -6.3958838177000085e-02 -9.7148230318956763e-01 0.0000000000000000e+00  -6.3867579507067035e-02 -9.7763580590822119e-01 0.0000000000000000e+00  -6.3363262546837842e-02 -9.8379343980636202e-01 0.0000000000000000e+00  -6.2433420326064276e-02 -9.8985929263604111e-01 0.0000000000000000e+00  -6.1117821821745244e-02 -9.9549519911355766e-01 0.0000000000000000e+00  -5.9436807872999119e-02 -1.0008425195694355e+00 0.0000000000000000e+00  -5.7425473082444410e-02 -1.0059240935574458e+00 0.0000000000000000e+00  -5.5122192500714623e-02 -1.0104937354154111e+00 0.0000000000000000e+00  -5.2546602389756704e-02 -1.0146470408515997e+00 0.0000000000000000e+00  -4.9757868662101343e-02 -1.0182091204928239e+00 0.0000000000000000e+00  -4.6778306939751622e-02 -1.0214756402152716e+00 0.0000000000000000e+00  -4.3646583836173432e-02 -1.0243669079046134e+00 0.0000000000000000e+00  -4.0398254513579819e-02 -1.0267121986096996e+00 0.0000000000000000e+00  -3.7077042168426187e-02 -1.0286448460094944e+00 0.0000000000000000e+00  -3.3714281125035425e-02 -1.0300998109341812e+00 0.0000000000000000e+00  -3.0342753051833246e-02 -1.0311634998393766e+00 0.0000000000000000e+00  -2.6995286602228229e-02 -1.0317694763257532e+00 0.0000000000000000e+00  -2.3711010442063491e-02 -1.0319156855849221e+00 0.0000000000000000e+00  -2.0526781387437541e-02 -1.0316208252978414e+00 0.0000000000000000e+00  -1.7476855724979153e-02 -1.0308155247684148e+00 0.0000000000000000e+00  -1.4597561918239056e-02 -1.0295144895089985e+00 0.0000000000000000e+00  -1.1926538583011044e-02 -1.0276977160015763e+00 0.0000000000000000e+00  -9.4975887260299492e-03 -1.0253957644146856e+00 0.0000000000000000e+00  -7.3419846900832563e-03 -1.0226588320638421e+00 0.0000000000000000e+00  -5.4824954990998521e-03 -1.0195798008078880e+00 0.0000000000000000e+00  -3.9310420750838541e-03 -1.0163005002683834e+00 0.0000000000000000e+00  -2.6877467636048607e-03 -1.0129884928751252e+00 0.0000000000000000e+00  -1.7373381114180627e-03 -1.0098326802964457e+00 0.0000000000000000e+00  -1.0505059590581391e-03 -1.0070132374755882e+00 0.0000000000000000e+00  -5.8617154405005503e-04 -1.0046683257222200e+00 0.0000000000000000e+00  -2.9621832758907062e-04 -1.0028746116273421e+00 0.0000000000000000e+00  -1.3130069961246545e-04 -1.0016234661228856e+00 0.0000000000000000e+00  -4.7367322221448155e-05 -1.0008287131955709e+00 0.0000000000000000e+00  -1.0362727287048167e-05 -1.0003425824216166e+00 0.0000000000000000e+00  0.0000000000000000e+00 -1.0000000000000000e+00 0.0000000000000000e+00  0.0000000000000000e+00 -9.0783667484726049e-01 0.0000000000000000e+00  -1.6563220427410685e-03 -9.0574797437924726e-01 0.0000000000000000e+00  -3.3231938515750803e-03 -9.0433550996146395e-01 0.0000000000000000e+00  -5.0538310194586647e-03 -9.0221100374003993e-01 0.0000000000000000e+00  -6.8828390250226142e-03 -8.9941746198554817e-01 0.0000000000000000e+00  -8.8317258481345473e-03 -8.9601702631496372e-01 0.0000000000000000e+00  -1.0943841567623930e-02 -8.9213244357817501e-01 0.0000000000000000e+00  -1.3227483176615616e-02 -8.8791693739484523e-01 0.0000000000000000e+00  -1.5698913564085815e-02 -8.8350388761625953e-01 0.0000000000000000e+00  -1.8353901324511389e-02 -8.7902847599274492e-01 0.0000000000000000e+00  -2.1208660364252903e-02 -8.7486302392990456e-01 0.0000000000000000e+00  -2.4252419003693376e-02 -8.7106186050334133e-01 0.0000000000000000e+00  -2.7473429025574952e-02 -8.6779560258286004e-01 0.0000000000000000e+00  -3.0826598941329122e-02 -8.6538731628147103e-01 0.0000000000000000e+00  -3.4301209713305539e-02 -8.6397735863235225e-01 0.0000000000000000e+00  -3.7849069054890654e-02 -8.6368744320582747e-01 0.0000000000000000e+00  -4.1424550980982931e-02 -8.6458013596022876e-01 0.0000000000000000e+00  -4.4970018243789718e-02 -8.6685389223462395e-01 0.0000000000000000e+00  -4.8426393660903441e-02 -8.7065064161035777e-01 0.0000000000000000e+00  -5.1738205911694465e-02 -8.7569688601093820e-01 0.0000000000000000e+00  -5.4857208534164266e-02 -8.8215386411651342e-01 0.0000000000000000e+00  -5.7692470401343607e-02 -8.8989257105570652e-01 0.0000000000000000e+00  -6.0223153556129429e-02 -8.9873779770189155e-01 0.0000000000000000e+00  -6.2380964137308502e-02 -9.0866253530808594e-01 0.0000000000000000e+00  -6.4136413852353052e-02 -9.1943102184772396e-01 0.0000000000000000e+00  -6.5440464090129852e-02 -9.3068129584969128e-01 0.0000000000000000e+00  -6.6278427218317934e-02 -9.4232842851873821e-01 0.0000000000000000e+00  -6.6642788358208652e-02 -9.5402910868983137e-01 0.0000000000000000e+00  -6.6524954975900885e-02 -9.6577179225724075e-01 0.0000000000000000e+00  -6.5933400686037161e-02 -9.7731312798995640e-01 0.0000000000000000e+00  -6.4876475481075849e-02 -9.8836836044671394e-01 0.0000000000000000e+00  -6.3397445995259455e-02 -9.9884130273534022e-01 0.0000000000000000e+00  -6.1507031731573236e-02 -1.0086362053999112e+00 0.0000000000000000e+00  -5.9249415423428639e-02 -1.0176860895492865e+00 0.0000000000000000e+00  -5.6666052514604007e-02 -1.0259381865491299e+00 0.0000000000000000e+00  -5.3789255101535274e-02 -1.0332899490159582e+00 0.0000000000000000e+00  -5.0653366893266404e-02 -1.0398088473182920e+00 0.0000000000000000e+00  -4.7323131303276741e-02 -1.0455066838718774e+00 0.0000000000000000e+00  -4.3840474526231389e-02 -1.0502337611693586e+00 0.0000000000000000e+00  -4.0242158421040460e-02 -1.0540949591962785e+00 0.0000000000000000e+00  -3.6570434673969754e-02 -1.0570934028988621e+00 0.0000000000000000e+00  -3.2874632487337276e-02 -1.0592249140544894e+00 0.0000000000000000e+00  -2.9195388098517412e-02 -1.0604468062292938e+00 0.0000000000000000e+00  -2.5577532333864526e-02 -1.0607344942082153e+00 0.0000000000000000e+00  -2.2064421921551603e-02 -1.0600948319852346e+00 0.0000000000000000e+00  -1.8700529025905532e-02 -1.0584757319991045e+00 0.0000000000000000e+00  -1.5532255354186701e-02 -1.0558592752737266e+00 0.0000000000000000e+00  -1.2600016422824462e-02 -1.0522677431049527e+00 0.0000000000000000e+00  -9.9444793612040085e-03 -1.0477390882010156e+00 0.0000000000000000e+00  -7.5996778616686184e-03 -1.0424068876096531e+00 0.0000000000000000e+00  -5.5896694819693111e-03 -1.0364626089060243e+00 0.0000000000000000e+00  -3.9277661108585082e-03 -1.0301703001324127e+00 0.0000000000000000e+00  -2.6114833610813132e-03 -1.0238657617100155e+00 0.0000000000000000e+00  -1.6222073798227031e-03 -1.0179008729750683e+00 0.0000000000000000e+00  -9.2516396078936181e-04 -1.0126068623709952e+00 0.0000000000000000e+00  -4.7238472713390334e-04 -1.0082382848823530e+00 0.0000000000000000e+00  -2.0796032090870039e-04 -1.0049294686547334e+00 0.0000000000000000e+00  -7.4310932830754696e-05 -1.0026618044266591e+00 0.0000000000000000e+00  -1.9369741908753708e-05 -1.0012733575531030e+00 0.0000000000000000e+00  -2.9486511484759983e-06 -1.0004938602751936e+00 0.0000000000000000e+00  0.0000000000000000e+00 -1.0000000000000000e+00 0.0000000000000000e+00  0.0000000000000000e+00 -8.8441655296563060e-01 0.0000000000000000e+00  -6.2063270936203231e-04 -8.8259973795467384e-01 0.0000000000000000e+00  -1.2524966346309496e-03 -8.8046509028131337e-01 0.0000000000000000e+00  -1.9580850710741392e-03 -8.7719356095857481e-01 0.0000000000000000e+00  -2.7676452977431539e-03 -8.7282551460873603e-01 0.0000000000000000e+00  -3.7217053126504178e-03 -8.6742825177525795e-01 0.0000000000000000e+00  -4.8397134273310350e-03 -8.6117906632640129e-01 0.0000000000000000e+00  -6.1577330562111064e-03 -8.5427244252750989e-01 0.0000000000000000e+00  -7.6933571956598768e-03 -8.4698851102815698e-01 0.0000000000000000e+00  -9.4595010292397690e-03 -8.3952686086404360e-01 0.0000000000000000e+00  -1.1467405675223729e-02 -8.3221893847829220e-01 0.0000000000000000e+00  -1.3717264168367424e-02 -8.2532760447959852e-01 0.0000000000000000e+00  -1.6199931643579545e-02 -8.1921591686390915e-01 0.0000000000000000e+00  -1.8910145922894139e-02 -8.1415969000453647e-01 0.0000000000000000e+00  -2.1821000235278370e-02 -8.1042664514347140e-01 0.0000000000000000e+00  -2.4898401665329854e-02 -8.0819319893239960e-01 0.0000000000000000e+00  -2.8105248354190364e-02 -8.0778725446873922e-01 0.0000000000000000e+00  -3.1398079652498967e-02 -8.0938742572574984e-01 0.0000000000000000e+00  -3.4718775712303848e-02 -8.1311505426363762e-01 0.0000000000000000e+00  -3.8002143878940721e-02 -8.1888999603899382e-01 0.0000000000000000e+00  -4.1190877780547454e-02 -8.2680931590764928e-01 0.0000000000000000e+00  -4.4233427535004644e-02 -8.3670994933112675e-01 0.0000000000000000e+00  -4.7043754816103733e-02 -8.4853805086549816e-01 0.0000000000000000e+00  -4.9580885243086154e-02 -8.6197956925334662e-01 0.0000000000000000e+00  -5.1784504312342598e-02 -8.7694504798557038e-01 0.0000000000000000e+00  -5.3617639929257582e-02 -8.9288291235143569e-01 0.0000000000000000e+00  -5.5042398346966545e-02 -9.0949861043098812e-01 0.0000000000000000e+00  -5.6031296247418615e-02 -9.2655068545337205e-01 0.0000000000000000e+00  -5.6558615014787747e-02 -9.4380618227819790e-01 0.0000000000000000e+00  -5.6628431919125435e-02 -9.6095608299057389e-01 0.0000000000000000e+00  -5.6235677947903233e-02 -9.7747745507433825e-01 0.0000000000000000e+00  -5.5405487555650702e-02 -9.9327904718517346e-01 0.0000000000000000e+00  -5.4152599865673112e-02 -1.0082745205316173e+00 0.0000000000000000e+00  -5.25038448104