<?xml version="1.0"?>
<VTKFile type="UnstructuredGrid"  version="0.1"  >
<UnstructuredGrid>
<Piece  NumberOfPoints="3721" NumberOfCells="7200">
<Points>
<DataArray  type="Float64"  NumberOfComponents="3"  format="ascii">0 0 0  0.003333333333333334 0 0  0.006666666666666667 0 0  0.01 0 0  0.01333333333333333 0 0  0.01666666666666667 0 0  0.02 0 0  0.02333333333333333 0 0  0.02666666666666667 0 0  0.03 0 0  0.03333333333333333 0 0  0.03666666666666667 0 0  0.04000000000000001 0 0  0.04333333333333333 0 0  0.04666666666666667 0 0  0.05 0 0  0.05333333333333334 0 0  0.05666666666666667 0 0  0.06 0 0  0.06333333333333334 0 0  0.06666666666666667 0 0  0.07000000000000001 0 0  0.07333333333333333 0 0  0.07666666666666667 0 0  0.08000000000000002 0 0  0.08333333333333333 0 0  0.08666666666666667 0 0  0.09000000000000001 0 0  0.09333333333333334 0 0  0.09666666666666668 0 0  0.1 0 0  0.1033333333333333 0 0  0.1066666666666667 0 0  0.11 0 0  0.1133333333333333 0 0  0.1166666666666667 0 0  0.12 0 0  0.1233333333333333 0 0  0.1266666666666667 0 0  0.13 0 0  0.1333333333333333 0 0  0.1366666666666667 0 0  0.14 0 0  0.1433333333333333 0 0  0.1466666666666667 0 0  0.15 0 0  0.1533333333333333 0 0  0.1566666666666667 0 0  0.16 0 0  0.1633333333333334 0 0  0.1666666666666667 0 0  0.17 0 0  0.1733333333333333 0 0  0.1766666666666667 0 0  0.18 0 0  0.1833333333333333 0 0  0.1866666666666667 0 0  0.19 0 0  0.1933333333333334 0 0  0.1966666666666667 0 0  0.2 0 0  0 0.01666666666666667 0  0.003333333333333334 0.01666666666666667 0  0.006666666666666667 0.01666666666666667 0  0.01 0.01666666666666667 0  0.01333333333333333 0.01666666666666667 0  0.01666666666666667 0.01666666666666667 0  0.02 0.01666666666666667 0  0.02333333333333333 0.01666666666666667 0  0.02666666666666667 0.01666666666666667 0  0.03 0.01666666666666667 0  0.03333333333333333 0.01666666666666667 0  0.03666666666666667 0.01666666666666667 0  0.04000000000000001 0.01666666666666667 0  0.04333333333333333 0.01666666666666667 0  0.04666666666666667 0.01666666666666667 0  0.05 0.01666666666666667 0  0.05333333333333334 0.01666666666666667 0  0.05666666666666667 0.01666666666666667 0  0.06 0.01666666666666667 0  0.06333333333333334 0.01666666666666667 0  0.06666666666666667 0.01666666666666667 0  0.07000000000000001 0.01666666666666667 0  0.07333333333333333 0.01666666666666667 0  0.07666666666666667 0.01666666666666667 0  0.08000000000000002 0.01666666666666667 0  0.08333333333333333 0.01666666666666667 0  0.08666666666666667 0.01666666666666667 0  0.09000000000000001 0.01666666666666667 0  0.09333333333333334 0.01666666666666667 0  0.09666666666666668 0.01666666666666667 0  0.1 0.01666666666666667 0  0.1033333333333333 0.01666666666666667 0  0.1066666666666667 0.01666666666666667 0  0.11 0.01666666666666667 0  0.1133333333333333 0.01666666666666667 0  0.1166666666666667 0.01666666666666667 0  0.12 0.01666666666666667 0  0.1233333333333333 0.01666666666666667 0  0.1266666666666667 0.01666666666666667 0  0.13 0.01666666666666667 0  0.1333333333333333 0.01666666666666667 0  0.1366666666666667 0.01666666666666667 0  0.14 0.01666666666666667 0  0.1433333333333333 0.01666666666666667 0  0.1466666666666667 0.01666666666666667 0  0.15 0.01666666666666667 0  0.1533333333333333 0.01666666666666667 0  0.1566666666666667 0.01666666666666667 0  0.16 0.01666666666666667 0  0.1633333333333334 0.01666666666666667 0  0.1666666666666667 0.01666666666666667 0  0.17 0.01666666666666667 0  0.1733333333333333 0.01666666666666667 0  0.1766666666666667 0.01666666666666667 0  0.18 0.01666666666666667 0  0.1833333333333333 0.01666666666666667 0  0.1866666666666667 0.01666666666666667 0  0.19 0.01666666666666667 0  0.1933333333333334 0.01666666666666667 0  0.1966666666666667 0.01666666666666667 0  0.2 0.01666666666666667 0  0 0.03333333333333333 0  0.003333333333333334 0.03333333333333333 0  0.006666666666666667 0.03333333333333333 0  0.01 0.03333333333333333 0  0.01333333333333333 0.03333333333333333 0  0.01666666666666667 0.03333333333333333 0  0.02 0.03333333333333333 0  0.02333333333333333 0.03333333333333333 0  0.02666666666666667 0.03333333333333333 0  0.03 0.03333333333333333 0  0.03333333333333333 0.03333333333333333 0  0.03666666666666667 0.03333333333333333 0  0.04000000000000001 0.03333333333333333 0  0.04333333333333333 0.03333333333333333 0  0.04666666666666667 0.03333333333333333 0  0.05 0.03333333333333333 0  0.05333333333333334 0.03333333333333333 0  0.05666666666666667 0.03333333333333333 0  0.06 0.03333333333333333 0  0.06333333333333334 0.03333333333333333 0  0.06666666666666667 0.03333333333333333 0  0.07000000000000001 0.03333333333333333 0  0.07333333333333333 0.03333333333333333 0  0.07666666666666667 0.03333333333333333 0  0.08000000000000002 0.03333333333333333 0  0.08333333333333333 0.03333333333333333 0  0.08666666666666667 0.03333333333333333 0  0.09000000000000001 0.03333333333333333 0  0.09333333333333334 0.03333333333333333 0  0.09666666666666668 0.03333333333333333 0  0.1 0.03333333333333333 0  0.1033333333333333 0.03333333333333333 0  0.1066666666666667 0.03333333333333333 0  0.11 0.03333333333333333 0  0.1133333333333333 0.03333333333333333 0  0.1166666666666667 0.03333333333333333 0  0.12 0.03333333333333333 0  0.1233333333333333 0.03333333333333333 0  0.1266666666666667 0.03333333333333333 0  0.13 0.03333333333333333 0  0.1333333333333333 0.03333333333333333 0  0.1366666666666667 0.03333333333333333 0  0.14 0.03333333333333333 0  0.1433333333333333 0.03333333333333333 0  0.1466666666666667 0.03333333333333333 0  0.15 0.03333333333333333 0  0.1533333333333333 0.03333333333333333 0  0.1566666666666667 0.03333333333333333 0  0.16 0.03333333333333333 0  0.1633333333333334 0.03333333333333333 0  0.1666666666666667 0.03333333333333333 0  0.17 0.03333333333333333 0  0.1733333333333333 0.03333333333333333 0  0.1766666666666667 0.03333333333333333 0  0.18 0.03333333333333333 0  0.1833333333333333 0.03333333333333333 0  0.1866666666666667 0.03333333333333333 0  0.19 0.03333333333333333 0  0.1933333333333334 0.03333333333333333 0  0.1966666666666667 0.03333333333333333 0  0.2 0.03333333333333333 0  0 0.05 0  0.003333333333333334 0.05 0  0.006666666666666667 0.05 0  0.01 0.05 0  0.01333333333333333 0.05 0  0.01666666666666667 0.05 0  0.02 0.05 0  0.02333333333333333 0.05 0  0.02666666666666667 0.05 0  0.03 0.05 0  0.03333333333333333 0.05 0  0.03666666666666667 0.05 0  0.04000000000000001 0.05 0  0.04333333333333333 0.05 0  0.04666666666666667 0.05 0  0.05 0.05 0  0.05333333333333334 0.05 0  0.05666666666666667 0.05 0  0.06 0.05 0  0.06333333333333334 0.05 0  0.06666666666666667 0.05 0  0.07000000000000001 0.05 0  0.07333333333333333 0.05 0  0.07666666666666667 0.05 0  0.08000000000000002 0.05 0  0.08333333333333333 0.05 0  0.08666666666666667 0.05 0  0.09000000000000001 0.05 0  0.09333333333333334 0.05 0  0.09666666666666668 0.05 0  0.1 0.05 0  0.1033333333333333 0.05 0  0.1066666666666667 0.05 0  0.11 0.05 0  0.1133333333333333 0.05 0  0.1166666666666667 0.05 0  0.12 0.05 0  0.1233333333333333 0.05 0  0.1266666666666667 0.05 0  0.13 0.05 0  0.1333333333333333 0.05 0  0.1366666666666667 0.05 0  0.14 0.05 0  0.1433333333333333 0.05 0  0.1466666666666667 0.05 0  0.15 0.05 0  0.1533333333333333 0.05 0  0.1566666666666667 0.05 0  0.16 0.05 0  0.1633333333333334 0.05 0  0.1666666666666667 0.05 0  0.17 0.05 0  0.1733333333333333 0.05 0  0.1766666666666667 0.05 0  0.18 0.05 0  0.1833333333333333 0.05 0  0.1866666666666667 0.05 0  0.19 0.05 0  0.1933333333333334 0.05 0  0.1966666666666667 0.05 0  0.2 0.05 0  0 0.06666666666666667 0  0.003333333333333334 0.06666666666666667 0  0.006666666666666667 0.06666666666666667 0  0.01 0.06666666666666667 0  0.01333333333333333 0.06666666666666667 0  0.01666666666666667 0.06666666666666667 0  0.02 0.06666666666666667 0  0.02333333333333333 0.06666666666666667 0  0.02666666666666667 0.06666666666666667 0  0.03 0.06666666666666667 0  0.03333333333333333 0.06666666666666667 0  0.03666666666666667 0.06666666666666667 0  0.04000000000000001 0.06666666666666667 0  0.04333333333333333 0.06666666666666667 0  0.04666666666666667 0.06666666666666667 0  0.05 0.06666666666666667 0  0.05333333333333334 0.06666666666666667 0  0.05666666666666667 0.06666666666666667 0  0.06 0.06666666666666667 0  0.06333333333333334 0.06666666666666667 0  0.06666666666666667 0.06666666666666667 0  0.07000000000000001 0.06666666666666667 0  0.07333333333333333 0.06666666666666667 0  0.07666666666666667 0.06666666666666667 0  0.08000000000000002 0.06666666666666667 0  0.08333333333333333 0.06666666666666667 0  0.08666666666666667 0.06666666666666667 0  0.09000000000000001 0.06666666666666667 0  0.09333333333333334 0.06666666666666667 0  0.09666666666666668 0.06666666666666667 0  0.1 0.06666666666666667 0  0.1033333333333333 0.06666666666666667 0  0.1066666666666667 0.06666666666666667 0  0.11 0.06666666666666667 0  0.1133333333333333 0.06666666666666667 0  0.1166666666666667 0.06666666666666667 0  0.12 0.06666666666666667 0  0.1233333333333333 0.06666666666666667 0  0.1266666666666667 0.06666666666666667 0  0.13 0.06666666666666667 0  0.1333333333333333 0.06666666666666667 0  0.1366666666666667 0.06666666666666667 0  0.14 0.06666666666666667 0  0.1433333333333333 0.06666666666666667 0  0.1466666666666667 0.06666666666666667 0  0.15 0.06666666666666667 0  0.1533333333333333 0.06666666666666667 0  0.1566666666666667 0.06666666666666667 0  0.16 0.06666666666666667 0  0.1633333333333334 0.06666666666666667 0  0.1666666666666667 0.06666666666666667 0  0.17 0.06666666666666667 0  0.1733333333333333 0.06666666666666667 0  0.1766666666666667 0.06666666666666667 0  0.18 0.06666666666666667 0  0.1833333333333333 0.06666666666666667 0  0.1866666666666667 0.06666666666666667 0  0.19 0.06666666666666667 0  0.1933333333333334 0.06666666666666667 0  0.1966666666666667 0.06666666666666667 0  0.2 0.06666666666666667 0  0 0.08333333333333333 0  0.003333333333333334 0.08333333333333333 0 
[...]
<PointData  Vectors="f_5-0"> 
<DataArray  type="Float64"  Name="f_5-0"  NumberOfComponents="3" format="ascii">0.0000000000000000e+00 -9.8681706274763736e-01 0.0000000000000000e+00  -1.9561207063449378e-06 -9.8681708262204859e-01 0.0000000000000000e+00  -3.9563885469076336e-06 -9.8681720156844521e-01 0.0000000000000000e+00  -5.9857099150440879e-06 -9.8681741879737206e-01 0.0000000000000000e+00  -8.0594496168942498e-06 -9.8681773320275246e-01 0.0000000000000000e+00  -1.0193455578905779e-05 -9.8681814793269762e-01 0.0000000000000000e+00  -1.2404508031075375e-05 -9.8681866845084432e-01 0.0000000000000000e+00  -1.4710307136492815e-05 -9.8681930216626357e-01 0.0000000000000000e+00  -1.7129631057357196e-05 -9.8682005838792819e-01 0.0000000000000000e+00  -1.9682554535749570e-05 -9.8682094842670165e-01 0.0000000000000000e+00  -2.2390692447130878e-05 -9.8682198577494518e-01 0.0000000000000000e+00  -2.5277467839700003e-05 -9.8682318634386090e-01 0.0000000000000000e+00  -2.8368405172698811e-05 -9.8682456875575342e-01 0.0000000000000000e+00  -3.1691451950273571e-05 -9.8682615469403623e-01 0.0000000000000000e+00  -3.5277333351877401e-05 -9.8682796931740357e-01 0.0000000000000000e+00  -3.9159944891140743e-05 -9.8683004174631617e-01 0.0000000000000000e+00  -4.3376788992608409e-05 -9.8683240563252872e-01 0.0000000000000000e+00  -4.7969461605043558e-05 -9.8683509982474948e-01 0.0000000000000000e+00  -5.2984196051060721e-05 -9.8683816914551936e-01 0.0000000000000000e+00  -5.8472471542292794e-05 -9.8684166529799877e-01 0.0000000000000000e+00  -6.4491694790287589e-05 -9.8684564792461194e-01 0.0000000000000000e+00  -7.1105964008474817e-05 -9.8685018584324979e-01 0.0000000000000000e+00  -7.8386925221365700e-05 -9.8685535849233685e-01 0.0000000000000000e+00  -8.6414731476828981e-05 -9.8686125762140764e-01 0.0000000000000000e+00  -9.5279116962036621e-05 -9.8686798927115083e-01 0.0000000000000000e+00  -1.0508059767475153e-04 -9.8687567609528648e-01 0.0000000000000000e+00  -1.1593181162392373e-04 -9.8688446008683151e-01 0.0000000000000000e+00  -1.2795901094259191e-04 -9.8689450578389781e-01 0.0000000000000000e+00  -1.4130371796337171e-04 -9.8690600404494999e-01 0.0000000000000000e+00  -1.5612455614668697e-04 -9.8691917650151217e-01 0.0000000000000000e+00  -1.7259926416914918e-04 -9.8693428081907542e-01 0.0000000000000000e+00  -1.9092689721775507e-04 -9.8695161692413902e-01 0.0000000000000000e+00  -2.1133021280308320e-04 -9.8697153438802321e-01 0.0000000000000000e+00  -2.3405822983563757e-04 -9.8699444120080337e-01 0.0000000000000000e+00  -2.5938893326564894e-04 -9.8702081422002486e-01 0.0000000000000000e+00  -2.8763207707888311e-04 -9.8705121164270659e-01 0.0000000000000000e+00  -3.1913200809609001e-04 -9.8708628793190878e-01 0.0000000000000000e+00  -3.5427038868610452e-04 -9.8712681173354655e-01 0.0000000000000000e+00  -3.9346863311418701e-04 -9.8717368745134260e-01 0.0000000000000000e+00  -4.3718978005792216e-04 -9.8722798132405032e-01 0.0000000000000000e+00  -4.8593938298446804e-04 -9.8729095307660986e-01 0.0000000000000000e+00  -5.4026479158629146e-04 -9.8736409451817186e-01 0.0000000000000000e+00  -6.0075186547619099e-04 -9.8744917686341060e-01 0.0000000000000000e+00  -6.6801764690184874e-04 -9.8754830908766400e-01 0.0000000000000000e+00  -7.4269667398185898e-04 -9.8766401034124696e-01 0.0000000000000000e+00  -8.2541724257524315e-04 -9.8779930038226849e-01 0.0000000000000000e+00  -9.1676163266624783e-04 -9.8795781319412035e-01 0.0000000000000000e+00  -1.0172004868599825e-03 -9.8814394042975984e-01 0.0000000000000000e+00  -1.1269850821487991e-03 -9.8836301301232954e-01 0.0000000000000000e+00  -1.2459703915263553e-03 -9.8862153083680415e-01 0.0000000000000000e+00  -1.3733235837041055e-03 -9.8892745141109151e-01 0.0000000000000000e+00  -1.5070420200288079e-03 -9.8929054705458352e-01 0.0000000000000000e+00  -1.6431541514220327e-03 -9.8972283467046407e-01 0.0000000000000000e+00  -1.7743893020876220e-03 -9.9023906813913165e-01 0.0000000000000000e+00  -1.8879789120949601e-03 -9.9085726086964854e-01 0.0000000000000000e+00  -1.9620131851209224e-03 -9.9159923382122117e-01 0.0000000000000000e+00  -1.9592715784336459e-03 -9.9249127966273543e-01 0.0000000000000000e+00  -1.8205785830345534e-03 -9.9356761007861283e-01 0.0000000000000000e+00  -1.4446169383777860e-03 -9.9489054274571243e-01 0.0000000000000000e+00  -7.2730670653035976e-04 -9.9664925635870649e-01 0.0000000000000000e+00  0.0000000000000000e+00 -1.0000000000000000e+00 0.0000000000000000e+00  0.0000000000000000e+00 -9.8680052391052675e-01 0.0000000000000000e+00  -1.2346432150183003e-06 -9.8680053122007461e-01 0.0000000000000000e+00  -2.4757409377341214e-06 -9.8680055391121879e-01 0.0000000000000000e+00  -3.7346402472677871e-06 -9.8680058943348059e-01 0.0000000000000000e+00  -5.0171636019405839e-06 -9.8680064002867507e-01 0.0000000000000000e+00  -6.3305916330620278e-06 -9.8680070836729994e-01 0.0000000000000000e+00  -7.6831862170819808e-06 -9.8680079756494143e-01 0.0000000000000000e+00  -9.0836100190722102e-06 -9.8680091142267057e-01 0.0000000000000000e+00  -1.0540959432794326e-05 -9.8680105460305967e-01 0.0000000000000000e+00  -1.2064820649842196e-05 -9.8680123279205934e-01 0.0000000000000000e+00  -1.3665350536202109e-05 -9.8680145286720489e-01 0.0000000000000000e+00  -1.5353364306084665e-05 -9.8680172308908642e-01 0.0000000000000000e+00  -1.7140425965655315e-05 -9.8680205332649995e-01 0.0000000000000000e+00  -1.9038941093771762e-05 -9.8680245532384114e-01 0.0000000000000000e+00  -2.1062252294019670e-05 -9.8680294301956328e-01 0.0000000000000000e+00  -2.3224736472612285e-05 -9.8680353292484568e-01 0.0000000000000000e+00  -2.5541904441171484e-05 -9.8680424457401628e-01 0.0000000000000000e+00  -2.8030501584947629e-05 -9.8680510105980235e-01 0.0000000000000000e+00  -3.0708607694347878e-05 -9.8680612966976533e-01 0.0000000000000000e+00  -3.3595734718766525e-05 -9.8680736264348423e-01 0.0000000000000000e+00  -3.6712918727513232e-05 -9.8680883807410213e-01 0.0000000000000000e+00  -4.0082802721216720e-05 -9.8681060098320716e-01 0.0000000000000000e+00  -4.3729703930376948e-05 -9.8681270460395698e-01 0.0000000000000000e+00  -4.7679659230814667e-05 -9.8681521191550958e-01 0.0000000000000000e+00  -5.1960438900425949e-05 -9.8681819748090249e-01 0.0000000000000000e+00  -5.6601516051971177e-05 -9.8682174965233360e-01 0.0000000000000000e+00  -6.1633976320451728e-05 -9.8682597322299670e-01 0.0000000000000000e+00  -6.7090346201722776e-05 -9.8683099262156215e-01 0.0000000000000000e+00  -7.3004314609749420e-05 -9.8683695576946517e-01 0.0000000000000000e+00  -7.9410312170420997e-05 -9.8684403874867088e-01 0.0000000000000000e+00  -8.6342905290975790e-05 -9.8685245146367695e-01 0.0000000000000000e+00  -9.3835948746687223e-05 -9.8686244452659333e-01 0.0000000000000000e+00  -1.0192142625043446e-04 -9.8687431765128641e-01 0.0000000000000000e+00  -1.1062788737894116e-04 -9.8688842991458858e-01 0.0000000000000000e+00  -1.1997836945649623e-04 -9.8690521233655626e-01 0.0000000000000000e+00  -1.2998765806846935e-04 -9.8692518334793855e-01 0.0000000000000000e+00  -1.4065870919471524e-04 -9.8694896786747655e-01 0.0000000000000000e+00  -1.5197801103620959e-04 -9.8697732090497658e-01 0.0000000000000000e+00  -1.6390961619639836e-04 -9.8701115686020069e-01 0.0000000000000000e+00  -1.7638752271380048e-04 -9.8705158601240794e-01 0.0000000000000000e+00  -1.8930603531414636e-04 -9.8709996011319456e-01 0.0000000000000000e+00  -2.0250770683449045e-04 -9.8715792953492643e-01 0.0000000000000000e+00  -2.1576847106149761e-04 -9.8722751511401574e-01 0.0000000000000000e+00  -2.2877968130203589e-04 -9.8731119868791573e-01 0.0000000000000000e+00  -2.4112704628874681e-04 -9.8741203739830852e-01 0.0000000000000000e+00  -2.5226704443018005e-04 -9.8753380811077407e-01 0.0000000000000000e+00  -2.6150252309265826e-04 -9.8768118976735986e-01 0.0000000000000000e+00  -2.6796121690740869e-04 -9.8785999302075100e-01 0.0000000000000000e+00  -2.7058437723255177e-04 -9.8807744782481288e-01 0.0000000000000000e+00  -2.6813836237458006e-04 -9.8834256020803879e-01 0.0000000000000000e+00  -2.5927087461938449e-04 -9.8866654813365662e-01 0.0000000000000000e+00  -2.4264661312845733e-04 -9.8906336109391280e-01 0.0000000000000000e+00  -2.1721474908759263e-04 -9.8955027510604565e-01 0.0000000000000000e+00  -1.8268197453908525e-04 -9.9014852664273789e-01 0.0000000000000000e+00  -1.4028071788148281e-04 -9.9088389120390907e-01 0.0000000000000000e+00  -9.3878655185426784e-05 -9.9178699550471205e-01 0.0000000000000000e+00  -5.1550766638088996e-05 -9.9289288113438401e-01 0.0000000000000000e+00  -2.6229447694045599e-05 -9.9423892247486523e-01 0.0000000000000000e+00  -3.3742369118096958e-05 -9.9585915141861459e-01 0.0000000000000000e+00  -9.7390490429495911e-05 -9.9777183397310476e-01 0.0000000000000000e+00  0.0000000000000000e+00 -1.0000000000000000e+00 0.0000000000000000e+00  0.0000000000000000e+00 -9.8679292210759140e-01 0.0000000000000000e+00  -3.1173295471853812e-07 -9.8679292995120604e-01 0.0000000000000000e+00  -6.1133678122004687e-07 -9.8679291306536321e-01 0.0000000000000000e+00  -9.1336307340905794e-07 -9.8679287850229125e-01 0.0000000000000000e+00  -1.2190356171935795e-06 -9.8679282936724455e-01 0.0000000000000000e+00  -1.5301630393401380e-06 -9.8679276781226899e-01 0.0000000000000000e+00  -1.8481886353993067e-06 -9.8679269607278997e-01 0.0000000000000000e+00  -2.1745127104331284e-06 -9.8679261680470920e-01 0.0000000000000000e+00  -2.5106031542846149e-06 -9.8679253328770866e-01 0.0000000000000000e+00  -2.8580099321513834e-06 -9.8679244959218704e-01 0.0000000000000000e+00  -3.2183764174562584e-06 -9.8679237075157245e-01 0.0000000000000000e+00  -3.5934409145289350e-06 -9.8679230295964160e-01 0.0000000000000000e+00  -3.9850357705163055e-06 -9.8679225380452196e-01 0.0000000000000000e+00  -4.3950818968412994e-06 -9.8679223254822834e-01 0.0000000000000000e+00  -4.8255797782113010e-06 -9.8679225046141883e-01 0.0000000000000000e+00  -5.2785940211572770e-06 -9.8679232122472893e-01 0.0000000000000000e+00  -5.7562309060329031e-06 -9.8679246140955379e-01 0.0000000000000000e+00  -6.2606076467308580e-06 -9.8679269105454082e-01 0.0000000000000000e+00  -6.7938094577645963e-06 -9.8679303435666810e-01 0.0000000000000000e+00  -7.3578334405383524e-06 -9.8679352050022873e-01 0.0000000000000000e+00  -7.9545160308313507e-06 -9.8679418465223723e-01 0.0000000000000000e+00  -8.5854398548477706e-06 -9.8679506915830595e-01 0.0000000000000000e+00  -9.2518162992475928e-06 -9.8679622498093778e-01 0.0000000000000000e+00  -9.9543386154957147e-06 -9.8679771343167777e-01 0.0000000000000000e+00  -1.0692999681664191e-05 -9.8679960825874180e-01 0.0000000000000000e+00  -1.1466868163437087e-05 -9.8680199816695124e-01 0.0000000000000000e+00  -1.2273814902012857e-05 -9.8680498986311260e-01 0.0000000000000000e+00  -1.3110180859665738e-05 -9.8680871174076845e-01 0.0000000000000000e+00  -1.3970377479044330e-05 -9.8681331834479236e-01 0.0000000000000000e+00  -1.4846409270357232e-05 -9.8681899578799592e-01 0.0000000000000000e+00  -1.5727308432057638e-05 -9.8682596833093639e-01 0.0000000000000000e+00  -1.6598470141635261e-05 -9.8683450638523940e-01 0.0000000000000000e+00  -1.7440883260383269e-05 -9.8684493626001191e-01 0.0000000000000000e+00  -1.8230250173108619e-05 -9.8685765204510967e-01 0.0000000000000000e+00  -1.8936000250944122e-05 -9.8687313011436917e-01 0.0000000000000000e+00  -1.9520212460174304e-05 -9.8689194684411419e-01 0.0000000000000000e+00  -1.9936480150104518e-05 -9.8691480027470269e-01 0.0000000000000000e+00  -2.0128783802370028e-05 -9.8694253660612108e-01 0.0000000000000000e+00  -2.0030478310971159e-05 -9.8697618261486042e-01 0.0000000000000000e+00  -1.9563567626656540e-05 -9.8701698530749382e-01 0.0000000000000000e+00  -1.8638529831775306e-05 -9.8706646039643020e-01 0.0000000000000000e+00  -1.7155081063328245e-05 -9.8712645148679934e-01 0.0000000000000000e+00  -1.5004431843831842e-05 -9.8719920219823998e-01 0.0000000000000000e+00  -1.2073801842926771e-05 -9.8728744379804256e-01 0.0000000000000000e+00  -8.2542059316788352e-06 -9.8739450126048955e-01 0.0000000000000000e+00  -3.4527776977729168e-06 -9.8752442095608495e-01 0.0000000000000000e+00  2.3889011631406771e-06 -9.8768212335313588e-01 0.0000000000000000e+00  9.2690135976136650e-06 -9.8787358410930803e-01 0.0000000000000000e+00  1.7091281242978246e-05 -9.8810604667687407e-01 0.0000000000000000e+00  2.5622719916729396e-05 -9.8838826904290267e-01 0.0000000000000000e+00  3.4446819777991328e-05 -9.8873080664202162e-01 0.0000000000000000e+00  4.2921322645157652e-05 -9.8914633341759561e-01 0.0000000000000000e+00  5.0159298588669657e-05 -9.8965000499353439e-01 0.0000000000000000e+00  5.5066748191016647e-05 -9.9025987523410430e-01 0.0000000000000000e+00  5.6489825541214037e-05 -9.9099739703633527e-01 0.0000000000000000e+00  5.3529152942866429e-05 -9.9188807984934191e-01 0.0000000000000000e+00  4.6110115878900833e-05 -9.9296246674088595e-01 0.0000000000000000e+00  3.5780680284739944e-05 -9.9425772596978457e-01 0.0000000000000000e+00  2.4892426346686344e-05 -9.9582013247110768e-01 0.0000000000000000e+00  2.4019408402685468e-05 -9.9771010666633164e-01 0.0000000000000000e+00  0.0000000000000000e+00 -1.0000000000000000e+00 0.0000000000000000e+00  0.0000000000000000e+00 -9.8679355561355109e-01 0.0000000000000000e+00  3.4252534671924748e-07 -9.8679356839435739e-01 0.0000000000000000e+00  7.0306608490493124e-07 -9.8679355950999936e-01 0.0000000000000000e+00  1.0704852629407454e-06 -9.8679353812733683e-01 0.0000000000000000e+00  1.4453384637092489e-06 -9.8679350746536032e-01 0.0000000000000000e+00  1.8295892481332601e-06 -9.8679346966552028e-01 0.0000000000000000e+00  2.2257740026340286e-06 -9.8679342690169392e-01 0.0000000000000000e+00  2.6364649503072089e-06 -9.8679338176951825e-01 0.0000000000000000e+00  3.0642587285394239e-06 -9.8679333750285469e-01 0.0000000000000000e+00  3.5117665065551816e-06 -9.8679329814490535e-01 0.0000000000000000e+00  3.9816203829640257e-06 -9.8679326872959439e-01 0.0000000000000000e+00  4.4764858212266308e-06 -9.8679325549188923e-01 0.0000000000000000e+00  4.9990754638445865e-06 -9.8679326611808948e-01 0.0000000000000000e+00  5.5521640201809537e-06 -9.8679331004534165e-01 0.0000000000000000e+00  6.1386047377743962e-06 -9.8679339882063433e-01 0.0000000000000000e+00  6.7613478033288104e-06 -9.8679354653094631e-01 0.0000000000000000e+00  7.4234615931787554e-06 -9.8679377031807425e-01 0.0000000000000000e+00  8.1281560862284309e-06 -9.8679409099520010e-01 0.0000000000000000e+00  8.8788100316570546e-06 -9.8679453378521831e-01 0.0000000000000000e+00  9.6790013640192203e-06 -9.8679512920477197e-01 0.0000000000000000e+00  1.0532541893561960e-05 -9.8679591412345014e-01 0.0000000000000000e+00  1.1443514764670582e-05 -9.8679693303339910e-01 0.0000000000000000e+00  1.2416316306324765e-05 -9.8679823957236390e-01 0.0000000000000000e+00  1.3455700847944025e-05 -9.8679989835148985e-01 0.0000000000000000e+00  1.4566827637884200e-05 -9.8680198715073653e-01 0.0000000000000000e+00  1.5755308309167398e-05 -9.8680459955795163e-01 0.0000000000000000e+00  1.7027252791959252e-05 -9.8680784814275857e-01 0.0000000000000000e+00  1.8389310209973573e-05 -9.8681186827804657e-01 0.0000000000000000e+00  1.9848698448182473e-05 -9.8681682274281579e-01 0.0000000000000000e+00  2.1413217119970758e-05 -9.8682290727116406e-01 0.0000000000000000e+00  2.3091231197403791e-05 -9.8683035724532153e-01 0.0000000000000000e+00  2.4891613016915929e-05 -9.8683945577424781e-01 0.0000000000000000e+00  2.6823624376578215e-05 -9.8685054344896483e-01 0.0000000000000000e+00  2.8896711368501095e-05 -9.8686403012818402e-01 0.0000000000000000e+00  3.1120181033111455e-05 -9.8688040918121156e-01 0.0000000000000000e+00  3.3502718241786520e-05 -9.8690027470580755e-01 0.0000000000000000e+00  3.6051688280540774e-05 -9.8692434234342308e-01 0.0000000000000000e+00  3.8772161422553717e-05 -9.8695347444587411e-01 0.0000000000000000e+00  4.1665580090625134e-05 -9.8698871049841541e-01 0.0000000000000000e+00  4.4727981585266486e-05 -9.8703130389040039e-01 0.0000000000000000e+00  4.7947679115058270e-05 -9.8708276634762016e-01 0.0000000000000000e+00  5.1302309121331313e-05 -9.8714492160429801e-01 0.0000000000000000e+00  5.4755175857304528e-05 -9.8721997022342434e-01 0.0000000000000000e+00  5.8250876852774614e-05 -9.8731056787780369e-01 0.0000000000000000e+00  6.1710294541406351e-05 -9.8741991990929379e-01 0.0000000000000000e+00  6.5025209461568907e-05 -9.8755189565098300e-01 0.0000000000000000e+00  6.8053066002987181e-05 -9.8771116687512350e-01 0.0000000000000000e+00  7.0612801846714482e-05 -9.8790337593720134e-01 0.0000000000000000e+00  7.2483177713286812e-05 -9.8813534088201738e-01 0.0000000000000000e+00  7.3405664086327927e-05 -9.8841530718914739e-01 0.0000000000000000e+00  7.3094556416735388e-05 -9.8875325927217361e-01 0.0000000000000000e+00  7.1257407237530385e-05 -9.8916130970156602e-01 0.0000000000000000e+00  6.7628590083936287e-05 -9.8965419080605743e-01 0.0000000000000000e+00  6.2017660245402566e-05 -9.9024988205961517e-01 0.0000000000000000e+00  5.4369918413205886e-05 -9.9097041734580449e-01 0.0000000000000000e+00  4.4835881639926267e-05 -9.9184292826149290e-01 0.0000000000000000e+00  3.3839120028713842e-05 -9.9290099169826329e-01 0.0000000000000000e+00  2.2075266672378154e-05 -9.9418635272651978e-01 0.0000000000000000e+00  1.1055306349634500e-05 -9.9575122491458834e-01 0.0000000000000000e+00  1.3364659425512333e-06 -9.9766096222646983e-01 0.0000000000000000e+00  0.0000000000000000e+00 -1.0000000000000000e+00 0.0000000000000000e+00  0.0000000000000000e+00 -9.8679864660062344e-01 0.0000000000000000e+00  5.7819656212485694e-07 -9.8679866538071492e-01 0.0000000000000000e+00  1.1722486700063954e-06 -9.8679868851638941e-01 0.0000000000000000e+00  1.7764765072826056e-06 -9.8679872313215888e-01 0.0000000000000000e+00  2.3930397985303489e-06 -9.8679877178588005e-01 0.0000000000000000e+00  3.0258047731660644e-06 -9.8679883638256749e-01 0.0000000000000000e+00  3.6789194957068661e-06 -9.8679891903970485e-01 0.0000000000000000e+00  4.3565741173158636e-06 -9.8679902239373418e-01 0.0000000000000000e+00  5.0629713430441223e-06 -9.8679914976866379e-01 0.0000000000000000e+00  5.8023022105500815e-06 -9.8679930533195248e-01 0.0000000000000000e+00  6.5787475561357636e-06 -9.8679949427162528e-01 0.0000000000000000e+00  7.3964797237620032e-06 -9.8679972300601049e-01 0.0000000000000000e+00  8.2596632498044144e-06 -9.8679999943507546e-01 0.0000000000000000e+00  9.1724545166298787e-06 -9.8680033324181393e-01 0.0000000000000000e+00  1.0138999431770487e-05 -9.8680073625289477e-01 0.0000000000000000e+00  1.1163428718897181e-05 -9.8680122286993466e-01 0.0000000000000000e+00  1.2249851450282098e-05 -9.8680181058482397e-01 0.0000000000000000e+00  1.3402344852386477e-05 -9.8680252059539375e-01 0.0000000000000000e+00  1.4624941309465342e-05 -9.8680337854046618e-01 0.0000000000000000e+00  1.5921610297796070e-05 -9.8680441537774888e-01 0.0000000000000000e+00  1.7296235512708851e-05 -9.8680566843291262e-01 0.0000000000000000e+00  1.8752584148156888e-05 -9.8680718265333667e-01 0.0000000000000000e+00  2.0294267766459588e-05 -9.8680901210748073e-01 0.0000000000000000e+00  2.1924692280718440e-05 -9.8681122177887615e-01 0.0000000000000000e+00  2.3646993848343697e-05 -9.8681388971445827e-01 0.0000000000000000e+00  2.5463957739155341e-05 -9.8681710959841451e-01 0.0000000000000000e+00  2.7377915844297280e-05 -9.8682099383890354e-01 0.0000000000000000e+00  2.9390617683313380e-05 -9.8682567727128478e-01 0.0000000000000000e+00  3.1503069462310252e-05 -9.8683132160575981e-01 0.0000000000000000e+00  3.3715332978791863e-05 -9.8683812077229116e-01 0.0000000000000000e+00  3.6026277525779379e-05 -9.8684630734963430e-01 0.0000000000000000e+00  3.8433273323279201e-05 -9.8685616030351342e-01 0.0000000000000000e+00  4.0931817282611662e-05 -9.8686801430961402e-01 0.0000000000000000e+00  4.3515077408333865e-05 -9.8688227099389525e-01 0.00000000000