<?xml version="1.0"?>
<VTKFile type="UnstructuredGrid"  version="0.1"  >
<UnstructuredGrid>
<Piece  NumberOfPoints="3721" NumberOfCells="7200">
<Points>
<DataArray  type="Float64"  NumberOfComponents="3"  format="ascii">0 0 0  0.01666666666666667 0 0  0.03333333333333333 0 0  0.05 0 0  0.06666666666666667 0 0  0.08333333333333333 0 0  0.1 0 0  0.1166666666666667 0 0  0.1333333333333333 0 0  0.15 0 0  0.1666666666666667 0 0  0.1833333333333333 0 0  0.2 0 0  0.2166666666666667 0 0  0.2333333333333333 0 0  0.25 0 0  0.2666666666666667 0 0  0.2833333333333333 0 0  0.3 0 0  0.3166666666666667 0 0  0.3333333333333333 0 0  0.35 0 0  0.3666666666666666 0 0  0.3833333333333334 0 0  0.4 0 0  0.4166666666666667 0 0  0.4333333333333333 0 0  0.45 0 0  0.4666666666666667 0 0  0.4833333333333333 0 0  0.5 0 0  0.5166666666666667 0 0  0.5333333333333333 0 0  0.55 0 0  0.5666666666666667 0 0  0.5833333333333334 0 0  0.6 0 0  0.6166666666666667 0 0  0.6333333333333333 0 0  0.65 0 0  0.6666666666666666 0 0  0.6833333333333333 0 0  0.7 0 0  0.7166666666666667 0 0  0.7333333333333333 0 0  0.75 0 0  0.7666666666666667 0 0  0.7833333333333333 0 0  0.8 0 0  0.8166666666666667 0 0  0.8333333333333334 0 0  0.85 0 0  0.8666666666666667 0 0  0.8833333333333333 0 0  0.9 0 0  0.9166666666666666 0 0  0.9333333333333333 0 0  0.95 0 0  0.9666666666666667 0 0  0.9833333333333333 0 0  1 0 0  0 0.01666666666666667 0  0.01666666666666667 0.01666666666666667 0  0.03333333333333333 0.01666666666666667 0  0.05 0.01666666666666667 0  0.06666666666666667 0.01666666666666667 0  0.08333333333333333 0.01666666666666667 0  0.1 0.01666666666666667 0  0.1166666666666667 0.01666666666666667 0  0.1333333333333333 0.01666666666666667 0  0.15 0.01666666666666667 0  0.1666666666666667 0.01666666666666667 0  0.1833333333333333 0.01666666666666667 0  0.2 0.01666666666666667 0  0.2166666666666667 0.01666666666666667 0  0.2333333333333333 0.01666666666666667 0  0.25 0.01666666666666667 0  0.2666666666666667 0.01666666666666667 0  0.2833333333333333 0.01666666666666667 0  0.3 0.01666666666666667 0  0.3166666666666667 0.01666666666666667 0  0.3333333333333333 0.01666666666666667 0  0.35 0.01666666666666667 0  0.3666666666666666 0.01666666666666667 0  0.3833333333333334 0.01666666666666667 0  0.4 0.01666666666666667 0  0.4166666666666667 0.01666666666666667 0  0.4333333333333333 0.01666666666666667 0  0.45 0.01666666666666667 0  0.4666666666666667 0.01666666666666667 0  0.4833333333333333 0.01666666666666667 0  0.5 0.01666666666666667 0  0.5166666666666667 0.01666666666666667 0  0.5333333333333333 0.01666666666666667 0  0.55 0.01666666666666667 0  0.5666666666666667 0.01666666666666667 0  0.5833333333333334 0.01666666666666667 0  0.6 0.01666666666666667 0  0.6166666666666667 0.01666666666666667 0  0.6333333333333333 0.01666666666666667 0  0.65 0.01666666666666667 0  0.6666666666666666 0.01666666666666667 0  0.6833333333333333 0.01666666666666667 0  0.7 0.01666666666666667 0  0.7166666666666667 0.01666666666666667 0  0.7333333333333333 0.01666666666666667 0  0.75 0.01666666666666667 0  0.7666666666666667 0.01666666666666667 0  0.7833333333333333 0.01666666666666667 0  0.8 0.01666666666666667 0  0.8166666666666667 0.01666666666666667 0  0.8333333333333334 0.01666666666666667 0  0.85 0.01666666666666667 0  0.8666666666666667 0.01666666666666667 0  0.8833333333333333 0.01666666666666667 0  0.9 0.01666666666666667 0  0.9166666666666666 0.01666666666666667 0  0.9333333333333333 0.01666666666666667 0  0.95 0.01666666666666667 0  0.9666666666666667 0.01666666666666667 0  0.9833333333333333 0.01666666666666667 0  1 0.01666666666666667 0  0 0.03333333333333333 0  0.01666666666666667 0.03333333333333333 0  0.03333333333333333 0.03333333333333333 0  0.05 0.03333333333333333 0  0.06666666666666667 0.03333333333333333 0  0.08333333333333333 0.03333333333333333 0  0.1 0.03333333333333333 0  0.1166666666666667 0.03333333333333333 0  0.1333333333333333 0.03333333333333333 0  0.15 0.03333333333333333 0  0.1666666666666667 0.03333333333333333 0  0.1833333333333333 0.03333333333333333 0  0.2 0.03333333333333333 0  0.2166666666666667 0.03333333333333333 0  0.2333333333333333 0.03333333333333333 0  0.25 0.03333333333333333 0  0.2666666666666667 0.03333333333333333 0  0.2833333333333333 0.03333333333333333 0  0.3 0.03333333333333333 0  0.3166666666666667 0.03333333333333333 0  0.3333333333333333 0.03333333333333333 0  0.35 0.03333333333333333 0  0.3666666666666666 0.03333333333333333 0  0.3833333333333334 0.03333333333333333 0  0.4 0.03333333333333333 0  0.4166666666666667 0.03333333333333333 0  0.4333333333333333 0.03333333333333333 0  0.45 0.03333333333333333 0  0.4666666666666667 0.03333333333333333 0  0.4833333333333333 0.03333333333333333 0  0.5 0.03333333333333333 0  0.5166666666666667 0.03333333333333333 0  0.5333333333333333 0.03333333333333333 0  0.55 0.03333333333333333 0  0.5666666666666667 0.03333333333333333 0  0.5833333333333334 0.03333333333333333 0  0.6 0.03333333333333333 0  0.6166666666666667 0.03333333333333333 0  0.6333333333333333 0.03333333333333333 0  0.65 0.03333333333333333 0  0.6666666666666666 0.03333333333333333 0  0.6833333333333333 0.03333333333333333 0  0.7 0.03333333333333333 0  0.7166666666666667 0.03333333333333333 0  0.7333333333333333 0.03333333333333333 0  0.75 0.03333333333333333 0  0.7666666666666667 0.03333333333333333 0  0.7833333333333333 0.03333333333333333 0  0.8 0.03333333333333333 0  0.8166666666666667 0.03333333333333333 0  0.8333333333333334 0.03333333333333333 0  0.85 0.03333333333333333 0  0.8666666666666667 0.03333333333333333 0  0.8833333333333333 0.03333333333333333 0  0.9 0.03333333333333333 0  0.9166666666666666 0.03333333333333333 0  0.9333333333333333 0.03333333333333333 0  0.95 0.03333333333333333 0  0.9666666666666667 0.03333333333333333 0  0.9833333333333333 0.03333333333333333 0  1 0.03333333333333333 0  0 0.05 0  0.01666666666666667 0.05 0  0.03333333333333333 0.05 0  0.05 0.05 0  0.06666666666666667 0.05 0  0.08333333333333333 0.05 0  0.1 0.05 0  0.1166666666666667 0.05 0  0.1333333333333333 0.05 0  0.15 0.05 0  0.1666666666666667 0.05 0  0.1833333333333333 0.05 0  0.2 0.05 0  0.2166666666666667 0.05 0  0.2333333333333333 0.05 0  0.25 0.05 0  0.2666666666666667 0.05 0  0.2833333333333333 0.05 0  0.3 0.05 0  0.3166666666666667 0.05 0  0.3333333333333333 0.05 0  0.35 0.05 0  0.3666666666666666 0.05 0  0.3833333333333334 0.05 0  0.4 0.05 0  0.4166666666666667 0.05 0  0.4333333333333333 0.05 0  0.45 0.05 0  0.4666666666666667 0.05 0  0.4833333333333333 0.05 0  0.5 0.05 0  0.5166666666666667 0.05 0  0.5333333333333333 0.05 0  0.55 0.05 0  0.5666666666666667 0.05 0  0.5833333333333334 0.05 0  0.6 0.05 0  0.6166666666666667 0.05 0  0.6333333333333333 0.05 0  0.65 0.05 0  0.6666666666666666 0.05 0  0.6833333333333333 0.05 0  0.7 0.05 0  0.7166666666666667 0.05 0  0.7333333333333333 0.05 0  0.75 0.05 0  0.7666666666666667 0.05 0  0.7833333333333333 0.05 0  0.8 0.05 0  0.8166666666666667 0.05 0  0.8333333333333334 0.05 0  0.85 0.05 0  0.8666666666666667 0.05 0  0.8833333333333333 0.05 0  0.9 0.05 0  0.9166666666666666 0.05 0  0.9333333333333333 0.05 0  0.95 0.05 0  0.9666666666666667 0.05 0  0.9833333333333333 0.05 0  1 0.05 0  0 0.06666666666666667 0  0.01666666666666667 0.06666666666666667 0  0.03333333333333333 0.06666666666666667 0  0.05 0.06666666666666667 0  0.06666666666666667 0.06666666666666667 0  0.08333333333333333 0.06666666666666667 0  0.1 0.06666666666666667 0  0.1166666666666667 0.06666666666666667 0  0.1333333333333333 0.06666666666666667 0  0.15 0.06666666666666667 0  0.1666666666666667 0.06666666666666667 0  0.1833333333333333 0.06666666666666667 0  0.2 0.06666666666666667 0  0.2166666666666667 0.06666666666666667 0  0.2333333333333333 0.06666666666666667 0  0.25 0.06666666666666667 0  0.2666666666666667 0.06666666666666667 0  0.2833333333333333 0.06666666666666667 0  0.3 0.06666666666666667 0  0.3166666666666667 0.06666666666666667 0  0.3333333333333333 0.06666666666666667 0  0.35 0.06666666666666667 0  0.3666666666666666 0.06666666666666667 0  0.3833333333333334 0.06666666666666667 0  0.4 0.06666666666666667 0  0.4166666666666667 0.06666666666666667 0  0.4333333333333333 0.06666666666666667 0  0.45 0.06666666666666667 0  0.4666666666666667 0.06666666666666667 0  0.4833333333333333 0.06666666666666667 0  0.5 0.06666666666666667 0  0.5166666666666667 0.06666666666666667 0  0.5333333333333333 0.06666666666666667 0  0.55 0.06666666666666667 0  0.5666666666666667 0.06666666666666667 0  0.5833333333333334 0.06666666666666667 0  0.6 0.06666666666666667 0  0.6166666666666667 0.06666666666666667 0  0.6333333333333333 0.06666666666666667 0  0.65 0.06666666666666667 0  0.6666666666666666 0.06666666666666667 0  0.6833333333333333 0.06666666666666667 0  0.7 0.06666666666666667 0  0.7166666666666667 0.06666666666666667 0  0.7333333333333333 0.06666666666666667 0  0.75 0.06666666666666667 0  0.7666666666666667 0.06666666666666667 0  0.7833333333333333 0.06666666666666667 0  0.8 0.06666666666666667 0  0.8166666666666667 0.06666666666666667 0  0.8333333333333334 0.06666666666666667 0  0.85 0.06666666666666667 0  0.8666666666666667 0.06666666666666667 0  0.8833333333333333 0.06666666666666667 0  0.9 0.06666666666666667 0  0.9166666666666666 0.06666666666666667 0  0.9333333333333333 0.06666666666666667 0  0.95 0.06666666666666667 0  0.9666666666666667 0.06666666666666667 0  0.9833333333333333 0.06666666666666667 0  1 0.06666666666666667 0  0 0.08333333333333333 0  0.01666666666666667 0.08333333333333333 0  0.03333333333333333 0.08333333333333333 0  0.05 0.08333333333333333 0  0.06666666666666667 0.08333333333333333 0  0.08333333333333333 0.08333333333333333 0  0.1 0.08333333333333333 0  0.1166666666666667 0.08333333333333333 0  0.1333333333333333 0.08333333333333333 0  0.15 0.08333333333333333 0  0.1666666666666667 0.08333333333333333 0  0.1833333333333333 0.08333333333333333 0  0.2 0.08333333333333333 0  0.2166666666666667 0.083333333333
[...]
<PointData  Vectors="f_5-0"> 
<DataArray  type="Float64"  Name="f_5-0"  NumberOfComponents="3" format="ascii">0.0000000000000000e+00 -3.2222651904572213e+00 0.0000000000000000e+00  9.3567572208958763e-04 -3.2219371384744830e+00 0.0000000000000000e+00  1.8689078116889525e-03 -3.2209831956312329e+00 0.0000000000000000e+00  2.8017127849513184e-03 -3.2193949225683625e+00 0.0000000000000000e+00  3.7345688234068897e-03 -3.2171659386396643e+00 0.0000000000000000e+00  4.6678106827374600e-03 -3.2142862177933957e+00 0.0000000000000000e+00  5.6017150321318928e-03 -3.2107420190575580e+00 0.0000000000000000e+00  6.5366021470702551e-03 -3.2065158633741460e+00 0.0000000000000000e+00  7.4728725026315624e-03 -3.2015863823754152e+00 0.0000000000000000e+00  8.4110380803758440e-03 -3.1959280541967328e+00 0.0000000000000000e+00  9.3517508741756336e-03 -3.1895108374517789e+00 0.0000000000000000e+00  1.0295833095373894e-02 -3.1822997062308884e+00 0.0000000000000000e+00  1.1244310906424849e-02 -3.1742540777285697e+00 0.0000000000000000e+00  1.2198453236004389e-02 -3.1653271181411404e+00 0.0000000000000000e+00  1.3159817260460182e-02 -3.1554649067750287e+00 0.0000000000000000e+00  1.4130302435316629e-02 -3.1446054321931234e+00 0.0000000000000000e+00  1.5112215456505432e-02 -3.1326773868453510e+00 0.0000000000000000e+00  1.6108349253624397e-02 -3.1195987172351303e+00 0.0000000000000000e+00  1.7122080136942167e-02 -3.1052748743591021e+00 0.0000000000000000e+00  1.8157488651538167e-02 -3.0895966927217220e+00 0.0000000000000000e+00  1.9219511709786832e-02 -3.0724378040019649e+00 0.0000000000000000e+00  2.0314136434758510e-02 -3.0536514610762353e+00 0.0000000000000000e+00  2.1448650231723692e-02 -3.0330666061991085e+00 0.0000000000000000e+00  2.2631967470157912e-02 -3.0104829588437121e+00 0.0000000000000000e+00  2.3875061616807646e-02 -2.9856648169941242e+00 0.0000000000000000e+00  2.5191543875143604e-02 -2.9583331505208914e+00 0.0000000000000000e+00  2.6598446971811782e-02 -2.9281554025079743e+00 0.0000000000000000e+00  2.8117297795426332e-02 -2.8947321847335528e+00 0.0000000000000000e+00  2.9775597570664596e-02 -2.8575797321925025e+00 0.0000000000000000e+00  3.1608875151425429e-02 -2.8161065407589922e+00 0.0000000000000000e+00  3.3663537311271363e-02 -2.7695820301386580e+00 0.0000000000000000e+00  3.6000801518637632e-02 -2.7170943604537352e+00 0.0000000000000000e+00  3.8702035418005785e-02 -2.6574937820676712e+00 0.0000000000000000e+00  4.1875778858688595e-02 -2.5893174131633656e+00 0.0000000000000000e+00  4.5666453788205490e-02 -2.5106918217481735e+00 0.0000000000000000e+00  5.0264025865816457e-02 -2.4192126513538099e+00 0.0000000000000000e+00  5.5912276775110528e-02 -2.3118082273983132e+00 0.0000000000000000e+00  6.2910394094131503e-02 -2.1846101656484973e+00 0.0000000000000000e+00  7.1597986563864457e-02 -2.0328822021399704e+00 0.0000000000000000e+00  8.2307957364090897e-02 -1.8510996627991005e+00 0.0000000000000000e+00  9.5267506136622063e-02 -1.6333183110410765e+00 0.0000000000000000e+00  1.1043059029651565e-01 -1.3739985657446392e+00 0.0000000000000000e+00  1.2724379132682098e-01 -1.0694156115590876e+00 0.0000000000000000e+00  1.4438827836504606e-01 -7.1963648949985837e-01 0.0000000000000000e+00  1.5959914994532134e-01 -3.3075838608630220e-01 0.0000000000000000e+00  1.6971497709391642e-01 8.3264998792492564e-02 0.0000000000000000e+00  1.7110908299087246e-01 5.0015264935209836e-01 0.0000000000000000e+00  1.6055285136072381e-01 8.9102533061164402e-01 0.0000000000000000e+00  1.3635181756069040e-01 1.2244955554516659e+00 0.0000000000000000e+00  9.9352085322562650e-02 1.4721548485363702e+00 0.0000000000000000e+00  5.3300642047125008e-02 1.6136319504944499e+00 0.0000000000000000e+00  4.2198924159214200e-03 1.6396302328507948e+00 0.0000000000000000e+00  -4.1087322087117191e-02 1.5525926013199554e+00 0.0000000000000000e+00  -7.6813981361382289e-02 1.3656237264924440e+00 0.0000000000000000e+00  -9.9468047757329481e-02 1.1001862180059381e+00 0.0000000000000000e+00  -1.0827366356758282e-01 7.8263753490463106e-01 0.0000000000000000e+00  -1.0465019301348182e-01 4.3980741213325575e-01 0.0000000000000000e+00  -9.1255924089625837e-02 9.4926522298576177e-02 0.0000000000000000e+00  -7.0714197078102892e-02 -2.3836461038354972e-01 0.0000000000000000e+00  -4.0242878494311400e-02 -5.6624812783627976e-01 0.0000000000000000e+00  0.0000000000000000e+00 -1.0000000000000000e+00 0.0000000000000000e+00  0.0000000000000000e+00 -3.2310871556814509e+00 0.0000000000000000e+00  8.4069526519758126e-04 -3.2307572716857611e+00 0.0000000000000000e+00  1.6808956351017036e-03 -3.2297959100232831e+00 0.0000000000000000e+00  2.5200853895384137e-03 -3.2282016464390497e+00 0.0000000000000000e+00  3.3579756041008566e-03 -3.2259673085019358e+00 0.0000000000000000e+00  4.1942854065664956e-03 -3.2230822837683166e+00 0.0000000000000000e+00  5.0287293300272096e-03 -3.2195327436961247e+00 0.0000000000000000e+00  5.8610306042485355e-03 -3.2153013985639398e+00 0.0000000000000000e+00  6.6909420837535059e-03 -3.2103672484861603e+00 0.0000000000000000e+00  7.5182641734343166e-03 -3.2047052817443187e+00 0.0000000000000000e+00  8.3428593048480906e-03 -3.1982861008564272e+00 0.0000000000000000e+00  9.1646666350068406e-03 -3.1910754636916758e+00 0.0000000000000000e+00  9.9837180639466630e-03 -3.1830337260314741e+00 0.0000000000000000e+00  1.0800156594171899e-02 -3.1741151696834846e+00 0.0000000000000000e+00  1.1614257925634114e-02 -3.1642671962986570e+00 0.0000000000000000e+00  1.2426456281861177e-02 -3.1534293619973846e+00 0.0000000000000000e+00  1.3237375679211320e-02 -3.1415322214548418e+00 0.0000000000000000e+00  1.4047868190325058e-02 -3.1284959417562277e+00 0.0000000000000000e+00  1.4859061242977950e-02 -3.1142286353999178e+00 0.0000000000000000e+00  1.5672416693396897e-02 -3.0986243473103197e+00 0.0000000000000000e+00  1.6489805408122386e-02 -3.0815606112348228e+00 0.0000000000000000e+00  1.7313602515509754e-02 -3.0628954644794137e+00 0.0000000000000000e+00  1.8146810548074151e-02 -3.0424637737864706e+00 0.0000000000000000e+00  1.8993220688462473e-02 -3.0200726752539722e+00 0.0000000000000000e+00  1.9857626695202083e-02 -2.9954958617338909e+00 0.0000000000000000e+00  2.0746112461365481e-02 -2.9684663537404901e+00 0.0000000000000000e+00  2.1666443467381495e-02 -2.9386672524957671e+00 0.0000000000000000e+00  2.2628605886542415e-02 -2.9057197792661640e+00 0.0000000000000000e+00  2.3645556389264775e-02 -2.8691676301120710e+00 0.0000000000000000e+00  2.4734272501107921e-02 -2.8284562890904352e+00 0.0000000000000000e+00  2.5917228782398796e-02 -2.7829054106766740e+00 0.0000000000000000e+00  2.7224466492391367e-02 -2.7316716744174165e+00 0.0000000000000000e+00  2.8696464744027969e-02 -2.6736986375595020e+00 0.0000000000000000e+00  3.0388033372088931e-02 -2.6076491747760495e+00 0.0000000000000000e+00  3.2373371192809773e-02 -2.5318154566513607e+00 0.0000000000000000e+00  3.4752145669989090e-02 -2.4440019511174693e+00 0.0000000000000000e+00  3.7655735896544869e-02 -2.3413804371465159e+00 0.0000000000000000e+00  4.1251323933339690e-02 -2.2203257317602412e+00 0.0000000000000000e+00  4.5738988451996102e-02 -2.0762616414215898e+00 0.0000000000000000e+00  5.1333310261807631e-02 -1.9035841003223746e+00 0.0000000000000000e+00  5.8217155329598216e-02 -1.6957848483680154e+00 0.0000000000000000e+00  6.6454060642948121e-02 -1.4459648504083651e+00 0.0000000000000000e+00  7.5852226647148607e-02 -1.1479684545326776e+00 0.0000000000000000e+00  8.5793722605127742e-02 -7.9832162991960454e-01 0.0000000000000000e+00  9.5079367945576351e-02 -3.9893825640372521e-01 0.0000000000000000e+00  1.0188330109143483e-01 3.9874383547397425e-02 0.0000000000000000e+00  1.0393468463815979e-01 4.9713389454019680e-01 0.0000000000000000e+00  9.9008371582451085e-02 9.4103192151449044e-01 0.0000000000000000e+00  8.5682331366238859e-02 1.3321177380550753e+00 0.0000000000000000e+00  6.4125524054315208e-02 1.6299640119927112e+00 0.0000000000000000e+00  3.6519896332451396e-02 1.8018145978410400e+00 0.0000000000000000e+00  6.7641533035262590e-03 1.8303631567975691e+00 0.0000000000000000e+00  -2.0556372156686882e-02 1.7177523501919179e+00 0.0000000000000000e+00  -4.1497264850300267e-02 1.4843429401438319e+00 0.0000000000000000e+00  -5.3746508535501315e-02 1.1629408180082312e+00 0.0000000000000000e+00  -5.6879394099914382e-02 7.9075800386355954e-01 0.0000000000000000e+00  -5.1939957328141793e-02 4.0172373833173025e-01 0.0000000000000000e+00  -4.0658940974271834e-02 2.0616359172652837e-02 0.0000000000000000e+00  -2.4647198624675848e-02 -3.4208516188033250e-01 0.0000000000000000e+00  -8.7567583218510804e-03 -6.8681837094787257e-01 0.0000000000000000e+00  0.0000000000000000e+00 -1.0000000000000000e+00 0.0000000000000000e+00  0.0000000000000000e+00 -3.2392624851386427e+00 0.0000000000000000e+00  8.0405070978202564e-04 -3.2389373976712057e+00 0.0000000000000000e+00  1.6079254460956284e-03 -3.2379727574751693e+00 0.0000000000000000e+00  2.4106792558062254e-03 -3.2363695438592752e+00 0.0000000000000000e+00  3.2114779643476745e-03 -3.2341222854607232e+00 0.0000000000000000e+00  4.0095495581734964e-03 -3.2312208384813297e+00 0.0000000000000000e+00  4.8041988181705608e-03 -3.2276514731679860e+00 0.0000000000000000e+00  5.5947322497850397e-03 -3.2233969596220415e+00 0.0000000000000000e+00  6.3804488071521927e-03 -3.2184363887474761e+00 0.0000000000000000e+00  7.1606386134246891e-03 -3.2127448805570267e+00 0.0000000000000000e+00  7.9345843802381202e-03 -3.2062932139990452e+00 0.0000000000000000e+00  8.7015638725547548e-03 -3.1990473725701256e+00 0.0000000000000000e+00  9.4608530690681644e-03 -3.1909679943634379e+00 0.0000000000000000e+00  1.0211730442581042e-02 -3.1820097109958820e+00 0.0000000000000000e+00  1.0953482799096153e-02 -3.1721203559294300e+00 0.0000000000000000e+00  1.1685413201202531e-02 -3.1612400179259144e+00 0.0000000000000000e+00  1.2406851583617982e-02 -3.1492999092785068e+00 0.0000000000000000e+00  1.3117168799355847e-02 -3.1362210105925543e+00 0.0000000000000000e+00  1.3815795029690013e-02 -3.1219124436001549e+00 0.0000000000000000e+00  1.4502243780683904e-02 -3.1062695099023663e+00 0.0000000000000000e+00  1.5176143120914242e-02 -3.0891713154015195e+00 0.0000000000000000e+00  1.5837276462277786e-02 -3.0704778757707993e+00 0.0000000000000000e+00  1.6485636159810826e-02 -3.0500265651316423e+00 0.0000000000000000e+00  1.7121494675313986e-02 -3.0276277246253360e+00 0.0000000000000000e+00  1.7745500265357466e-02 -3.0030591846597270e+00 0.0000000000000000e+00  1.8358807492568626e-02 -2.9760593668888102e+00 0.0000000000000000e+00  1.8963257871263049e-02 -2.9463185087303163e+00 0.0000000000000000e+00  1.9561633435077604e-02 -2.9134673790366135e+00 0.0000000000000000e+00  2.0158017037712538e-02 -2.8770626065646021e+00 0.0000000000000000e+00  2.0758309128632163e-02 -2.8365673931812010e+00 0.0000000000000000e+00  2.1370972981073738e-02 -2.7913258926932127e+00 0.0000000000000000e+00  2.2008109523693736e-02 -2.7405288605833120e+00 0.0000000000000000e+00  2.2686996818949205e-02 -2.6831672877446682e+00 0.0000000000000000e+00  2.3432258038618155e-02 -2.6179696463195623e+00 0.0000000000000000e+00  2.4278818790187749e-02 -2.5433172817951082e+00 0.0000000000000000e+00  2.5275719593537534e-02 -2.4571319466188517e+00 0.0000000000000000e+00  2.6490544874926684e-02 -2.3567308380317775e+00 0.0000000000000000e+00  2.8013520223305562e-02 -2.2386505592169672e+00 0.0000000000000000e+00  2.9958955336398981e-02 -2.0984571210349441e+00 0.0000000000000000e+00  3.2459475356262389e-02 -1.9305917286169318e+00 0.0000000000000000e+00  3.5645615104281610e-02 -1.7283591027651279e+00 0.0000000000000000e+00  3.9601157241827306e-02 -1.4842466217359755e+00 0.0000000000000000e+00  4.4286188565586117e-02 -1.1908463096951669e+00 0.0000000000000000e+00  4.9430038985412400e-02 -8.4267410224180184e-01 0.0000000000000000e+00  5.4419022959576187e-02 -4.3903376002172834e-01 0.0000000000000000e+00  5.8236378533737809e-02 1.2351208619952533e-02 0.0000000000000000e+00  5.9537220023538513e-02 4.9191026070242461e-01 0.0000000000000000e+00  5.6928683284346644e-02 9.6669417102303168e-01 0.0000000000000000e+00  4.9446089703345665e-02 1.3926494952096231e+00 0.0000000000000000e+00  3.7078744592851952e-02 1.7217454038155846e+00 0.0000000000000000e+00  2.1080621830233480e-02 1.9128909153815525e+00 0.0000000000000000e+00  3.8219257283328843e-03 1.9430476690785845e+00 0.0000000000000000e+00  -1.1845663611532047e-02 1.8137752044417965e+00 0.0000000000000000e+00  -2.3441399321351426e-02 1.5500984510239391e+00 0.0000000000000000e+00  -2.9518083029929632e-02 1.1923847194625312e+00 0.0000000000000000e+00  -2.9870020062233091e-02 7.8515781116080352e-01 0.0000000000000000e+00  -2.5332521010818204e-02 3.6730613116570238e-01 0.0000000000000000e+00  -1.7438399037856635e-02 -3.3737636483076094e-02 0.0000000000000000e+00  -8.6345566292805806e-03 -4.0240609439018260e-01 0.0000000000000000e+00  -2.0870645075817041e-03 -7.2877801004097942e-01 0.0000000000000000e+00  0.0000000000000000e+00 -1.0000000000000000e+00 0.0000000000000000e+00  0.0000000000000000e+00 -3.2472925230690324e+00 0.0000000000000000e+00  8.0798175040911325e-04 -3.2469704644383373e+00 0.0000000000000000e+00  1.6155618399784821e-03 -3.2460017925051030e+00 0.0000000000000000e+00  2.4217095662707254e-03 -3.2443877975761000e+00 0.0000000000000000e+00  3.2254921332523878e-03 -3.2421234599600410e+00 0.0000000000000000e+00  4.0258913982820195e-03 -3.2391990810539175e+00 0.0000000000000000e+00  4.8219276619073494e-03 -3.2356010584935651e+00 0.0000000000000000e+00  5.6126001018261523e-03 -3.2313121034250534e+00 0.0000000000000000e+00  6.3968683786036155e-03 -3.2263111546085619e+00 0.0000000000000000e+00  7.1736358010272630e-03 -3.2205731311634103e+00 0.0000000000000000e+00  7.9417386193734660e-03 -3.2140685805514031e+00 0.0000000000000000e+00  8.6999372532171725e-03 -3.2067632329696094e+00 0.0000000000000000e+00  9.4469085636113021e-03 -3.1986174577511921e+00 0.0000000000000000e+00  1.0181238894806108e-02 -3.1895856087616425e+00 0.0000000000000000e+00  1.0901417897844223e-02 -3.1796152404422866e+00 0.0000000000000000e+00  1.1605833299540062e-02 -3.1686461708275151e+00 0.0000000000000000e+00  1.2292766828845647e-02 -3.1566093616435653e+00 0.0000000000000000e+00  1.2960391545932650e-02 -3.1434255777905382e+00 0.0000000000000000e+00  1.3606770855203391e-02 -3.1290037784288778e+00 0.0000000000000000e+00  1.4229859546438177e-02 -3.1132391786784632e+00 0.0000000000000000e+00  1.4827507326835548e-02 -3.0960109034291681e+00 0.0000000000000000e+00  1.5397465523862943e-02 -3.0771791313374544e+00 0.0000000000000000e+00  1.5937398020920340e-02 -3.0565815954601319e+00 0.0000000000000000e+00  1.6444898137529560e-02 -3.0340292638970423e+00 0.0000000000000000e+00  1.6917514241015352e-02 -3.0093009646015867e+00 0.0000000000000000e+00  1.7352788619707571e-02 -2.9821366364179123e+00 0.0000000000000000e+00  1.7748316925243351e-02 -2.9522287736311994e+00 0.0000000000000000e+00  1.8101839855443825e-02 -2.9192114697296847e+00 0.0000000000000000e+00  1.8411385500902759e-02 -2.8826462374092876e+00 0.0000000000000000e+00  1.8675491040336951e-02 -2.8420034576456041e+00 0.0000000000000000e+00  1.8893547667110520e-02 -2.7966378526602163e+00 0.0000000000000000e+00  1.9066334251999193e-02 -2.7457557386092097e+00 0.0000000000000000e+00  1.9196833977064679e-02 -2.6883709469820762e+00 0.0000000000000000e+00  1.9291461579417100e-02 -2.6232451927008613e+00 0.0000000000000000e+00  1.9361856313101684e-02 -2.5488074064194137e+00 0.0000000000000000e+00  1.9427388255884137e-02 -2.4630455267507387e+00 0.0000000000000000e+00  1.9518419071854923e-02 -2.3633645221577773e+00 0.0000000000000000e+00  1.9680031298899496e-02 -2.2464083755849176e+00 0.0000000000000000e+00  1.9975203072410869e-02 -2.1078561094229680e+00 0.0000000000000000e+00  2.0485043141665858e-02 -1.9422304514573987e+00 0.0000000000000000e+00  2.1301666620333701e-02 -1.7428124329952965e+00 0.0000000000000000e+00  2.2507149352593802e-02 -1.5018422500436510e+00 0.0000000000000000e+00  2.4131599854384702e-02 -1.2112931014002586e+00 0.0000000000000000e+00  2.6088229507377807e-02 -8.6457362387444836e-01 0.0000000000000000e+00  2.8097261004000906e-02 -4.5942740334555410e-01 0.0000000000000000e+00  2.9633330934074022e-02 -1.9023936329030345e-03 0.0000000000000000e+00  2.9951807911041364e-02 4.8951147219238522e-01 0.0000000000000000e+00  2.8244873223292357e-02 9.8143090893206886e-01 0.0000000000000000e+00  2.3926609197877001e-02 1.4271992442512262e+00 0.0000000000000000e+00  1.6956170927691749e-02 1.7742338497804468e+00 0.0000000000000000e+00  8.0347483731559831e-03 1.9763246146676772e+00 0.0000000000000000e+00  -1.4707419532574374e-03 2.0068155131968535e+00 0.0000000000000000e+00  -9.8950587946124071e-03 1.8667744497488039e+00 0.0000000000000000e+00  -1.5782865803557374e-02 1.5840328308574316e+00 0.0000000000000000e+00  -1.8306600238599709e-02 1.2037405133257753e+00 0.0000000000000000e+00  -1.7434267244568577e-02 7.7534038539815053e-01 0.0000000000000000e+00  -1.3861654148180457e-02 3.4162898382632229e-01 0.0000000000000000e+00  -8.8530618684934219e-03 -6.6768992699546795e-02 0.0000000000000000e+00  -4.0495586782597218e-03 -4.3130993658074990e-01 0.0000000000000000e+00  -8.9705829060214624e-04 -7.4223216699759997e-01 0.0000000000000000e+00  0.0000000000000000e+00 -1.0000000000000000e+00 0.0000000000000000e+00  0.0000000000000000e+00 -3.2554934274361247e+00 0.0000000000000000e+00  8.3509410240245271e-04 -3.2551720224238307e+00 0.0000000000000000e+00  1.6696452156452677e-03 -3.2541967000339334e+00 0.0000000000000000e+00  2.5024501187416353e-03 -3.2525695636054244e+00 0.0000000000000000e+00  3.3325704419818131e-03 -3.2502851828065173e+00 0.0000000000000000e+00  4.1589017058528029e-03 -3.2473337324775988e+00 0.0000000000000000e+00  4.9803077598036573e-03 -3.2437014553474226e+00 0.0000000000000000e+00  5.7955907454555009e-03 -3.2393707828498584e+00 0.0000000000000000e+00  6.6034772844964203e-03 -3.2343202539576121e+00 0.0000000000000000e+00  7.4025970722763242e-03 -3.2285242883137766e+00 0.0000000000000000e+00  8.1914649106917623e-03 -3.2219528478533319e+00 0.0000000000000000e+00  8.9684636127957962e-03 -3.2145709991162259e+00 0.0000000000000000e+00  9.7318276839257409e-03 -3.2063383742596092e+00 0.0000000000000000e+00  1.0479627307559912e-02 -3.1972085197224116e+00 0.0000000000000000e+00  1.1209752445452564e-02 -3.1871281152224085e+00 0.0000000000000000e+00  1.1919896941605165e-02 -3.1760360398455578e+00 0.0000000000000000e+00  1.2607542534057162e-02 -3.1638622554681053e+00 0.0000000000000000e+00  1.3269942652148229e-02 -3.1505264697966942e+00 0.0000000000000000e+00  1.3904105823432827e-02 -3.1359365311949263e+00 0.0000000000000000e+00  1.4506778451809922e-02 -3.1199864943255058e+00 0.0000000000000000e+00  1.5074426674523578e-02 -3.1025542783494955e+00 0.0000000000000000e+00  1.5603216987170340e-02 -3.0834988164453372e+00 0.0000000000000000e+00  1.6088995384586052e-02 -3.0626565645806481e+00 0.0000000000000000e+00  1.6527264969014407e-02 -3.0398371957318373e+00 0.0000000000000000e+00  1.6913162433050848e-02 -3.0148182487275643e+00 0.0000000000000000e+00  1.7241434705913855e-02 -2.9873384223131385e+00 0.0000000000000000e+00  1.7506418631599435e-02 -2.9570890958277047e+00 0.0000000000000000e+00  1.7702029258191355e-02 -2.9237035049813067e+00 0.0000000000000000e+00  1.7821766827882630e-02 -2.8867427858575874e+00 0.0000000000000000e+00  1.7858759882825797e-02 -2.8456777959494897e+00 0.0000000000000000e+00  1.7805873507734136e-02 -2.7998651915397441e+00 0.0000000000000000e+00  1.7655929585031073e-02 -2.7485156397288986e+00 0.0000000000000000e+00  1.7402112256192492e-02 -2.6906512203018225e+00 0.0000000000000000e+00  1.7038668047020426e-02 -2.6250479947519416e+00 0.0000000000000000e+00  1.6562054275129856e-02 -2.5501584370089860e+00 0.0000000000000000e+00  1.5972729409873297e-02 -2.4640072195307652e+00 0.0000000000000000e+00  1.5277780680161617e-02 -2.