<?xml version="1.0"?>
<VTKFile type="UnstructuredGrid"  version="0.1"  >
<UnstructuredGrid>
<Piece  NumberOfPoints="10201" NumberOfCells="20000">
<Points>
<DataArray  type="Float64"  NumberOfComponents="3"  format="ascii">0 0 0  0.01 0 0  0.02 0 0  0.03 0 0  0.04 0 0  0.05 0 0  0.06 0 0  0.07000000000000001 0 0  0.08 0 0  0.09 0 0  0.1 0 0  0.11 0 0  0.12 0 0  0.13 0 0  0.14 0 0  0.15 0 0  0.16 0 0  0.17 0 0  0.18 0 0  0.19 0 0  0.2 0 0  0.21 0 0  0.22 0 0  0.23 0 0  0.24 0 0  0.25 0 0  0.26 0 0  0.27 0 0  0.28 0 0  0.29 0 0  0.3 0 0  0.31 0 0  0.32 0 0  0.33 0 0  0.34 0 0  0.35 0 0  0.36 0 0  0.37 0 0  0.38 0 0  0.39 0 0  0.4 0 0  0.41 0 0  0.42 0 0  0.43 0 0  0.44 0 0  0.45 0 0  0.46 0 0  0.47 0 0  0.48 0 0  0.49 0 0  0.5 0 0  0.51 0 0  0.52 0 0  0.53 0 0  0.54 0 0  0.55 0 0  0.5600000000000001 0 0  0.57 0 0  0.58 0 0  0.59 0 0  0.6 0 0  0.61 0 0  0.62 0 0  0.63 0 0  0.64 0 0  0.65 0 0  0.66 0 0  0.67 0 0  0.68 0 0  0.6899999999999999 0 0  0.7 0 0  0.71 0 0  0.72 0 0  0.73 0 0  0.74 0 0  0.75 0 0  0.76 0 0  0.77 0 0  0.78 0 0  0.79 0 0  0.8 0 0  0.8100000000000001 0 0  0.82 0 0  0.83 0 0  0.84 0 0  0.85 0 0  0.86 0 0  0.87 0 0  0.88 0 0  0.89 0 0  0.9 0 0  0.91 0 0  0.92 0 0  0.93 0 0  0.9399999999999999 0 0  0.95 0 0  0.96 0 0  0.97 0 0  0.98 0 0  0.99 0 0  1 0 0  0 0.02 0  0.01 0.02 0  0.02 0.02 0  0.03 0.02 0  0.04 0.02 0  0.05 0.02 0  0.06 0.02 0  0.07000000000000001 0.02 0  0.08 0.02 0  0.09 0.02 0  0.1 0.02 0  0.11 0.02 0  0.12 0.02 0  0.13 0.02 0  0.14 0.02 0  0.15 0.02 0  0.16 0.02 0  0.17 0.02 0  0.18 0.02 0  0.19 0.02 0  0.2 0.02 0  0.21 0.02 0  0.22 0.02 0  0.23 0.02 0  0.24 0.02 0  0.25 0.02 0  0.26 0.02 0  0.27 0.02 0  0.28 0.02 0  0.29 0.02 0  0.3 0.02 0  0.31 0.02 0  0.32 0.02 0  0.33 0.02 0  0.34 0.02 0  0.35 0.02 0  0.36 0.02 0  0.37 0.02 0  0.38 0.02 0  0.39 0.02 0  0.4 0.02 0  0.41 0.02 0  0.42 0.02 0  0.43 0.02 0  0.44 0.02 0  0.45 0.02 0  0.46 0.02 0  0.47 0.02 0  0.48 0.02 0  0.49 0.02 0  0.5 0.02 0  0.51 0.02 0  0.52 0.02 0  0.53 0.02 0  0.54 0.02 0  0.55 0.02 0  0.5600000000000001 0.02 0  0.57 0.02 0  0.58 0.02 0  0.59 0.02 0  0.6 0.02 0  0.61 0.02 0  0.62 0.02 0  0.63 0.02 0  0.64 0.02 0  0.65 0.02 0  0.66 0.02 0  0.67 0.02 0  0.68 0.02 0  0.6899999999999999 0.02 0  0.7 0.02 0  0.71 0.02 0  0.72 0.02 0  0.73 0.02 0  0.74 0.02 0  0.75 0.02 0  0.76 0.02 0  0.77 0.02 0  0.78 0.02 0  0.79 0.02 0  0.8 0.02 0  0.8100000000000001 0.02 0  0.82 0.02 0  0.83 0.02 0  0.84 0.02 0  0.85 0.02 0  0.86 0.02 0  0.87 0.02 0  0.88 0.02 0  0.89 0.02 0  0.9 0.02 0  0.91 0.02 0  0.92 0.02 0  0.93 0.02 0  0.9399999999999999 0.02 0  0.95 0.02 0  0.96 0.02 0  0.97 0.02 0  0.98 0.02 0  0.99 0.02 0  1 0.02 0  0 0.04 0  0.01 0.04 0  0.02 0.04 0  0.03 0.04 0  0.04 0.04 0  0.05 0.04 0  0.06 0.04 0  0.07000000000000001 0.04 0  0.08 0.04 0  0.09 0.04 0  0.1 0.04 0  0.11 0.04 0  0.12 0.04 0  0.13 0.04 0  0.14 0.04 0  0.15 0.04 0  0.16 0.04 0  0.17 0.04 0  0.18 0.04 0  0.19 0.04 0  0.2 0.04 0  0.21 0.04 0  0.22 0.04 0  0.23 0.04 0  0.24 0.04 0  0.25 0.04 0  0.26 0.04 0  0.27 0.04 0  0.28 0.04 0  0.29 0.04 0  0.3 0.04 0  0.31 0.04 0  0.32 0.04 0  0.33 0.04 0  0.34 0.04 0  0.35 0.04 0  0.36 0.04 0  0.37 0.04 0  0.38 0.04 0  0.39 0.04 0  0.4 0.04 0  0.41 0.04 0  0.42 0.04 0  0.43 0.04 0  0.44 0.04 0  0.45 0.04 0  0.46 0.04 0  0.47 0.04 0  0.48 0.04 0  0.49 0.04 0  0.5 0.04 0  0.51 0.04 0  0.52 0.04 0  0.53 0.04 0  0.54 0.04 0  0.55 0.04 0  0.5600000000000001 0.04 0  0.57 0.04 0  0.58 0.04 0  0.59 0.04 0  0.6 0.04 0  0.61 0.04 0  0.62 0.04 0  0.63 0.04 0  0.64 0.04 0  0.65 0.04 0  0.66 0.04 0  0.67 0.04 0  0.68 0.04 0  0.6899999999999999 0.04 0  0.7 0.04 0  0.71 0.04 0  0.72 0.04 0  0.73 0.04 0  0.74 0.04 0  0.75 0.04 0  0.76 0.04 0  0.77 0.04 0  0.78 0.04 0  0.79 0.04 0  0.8 0.04 0  0.8100000000000001 0.04 0  0.82 0.04 0  0.83 0.04 0  0.84 0.04 0  0.85 0.04 0  0.86 0.04 0  0.87 0.04 0  0.88 0.04 0  0.89 0.04 0  0.9 0.04 0  0.91 0.04 0  0.92 0.04 0  0.93 0.04 0  0.9399999999999999 0.04 0  0.95 0.04 0  0.96 0.04 0  0.97 0.04 0  0.98 0.04 0  0.99 0.04 0  1 0.04 0  0 0.06 0  0.01 0.06 0  0.02 0.06 0  0.03 0.06 0  0.04 0.06 0  0.05 0.06 0  0.06 0.06 0  0.07000000000000001 0.06 0  0.08 0.06 0  0.09 0.06 0  0.1 0.06 0  0.11 0.06 0  0.12 0.06 0  0.13 0.06 0  0.14 0.06 0  0.15 0.06 0  0.16 0.06 0  0.17 0.06 0  0.18 0.06 0  0.19 0.06 0  0.2 0.06 0  0.21 0.06 0  0.22 0.06 0  0.23 0.06 0  0.24 0.06 0  0.25 0.06 0  0.26 0.06 0  0.27 0.06 0  0.28 0.06 0  0.29 0.06 0  0.3 0.06 0  0.31 0.06 0  0.32 0.06 0  0.33 0.06 0  0.34 0.06 0  0.35 0.06 0  0.36 0.06 0  0.37 0.06 0  0.38 0.06 0  0.39 0.06 0  0.4 0.06 0  0.41 0.06 0  0.42 0.06 0  0.43 0.06 0  0.44 0.06 0  0.45 0.06 0  0.46 0.06 0  0.47 0.06 0  0.48 0.06 0  0.49 0.06 0  0.5 0.06 0  0.51 0.06 0  0.52 0.06 0  0.53 0.06 0  0.54 0.06 0  0.55 0.06 0  0.5600000000000001 0.06 0  0.57 0.06 0  0.58 0.06 0  0.59 0.06 0  0.6 0.06 0  0.61 0.06 0  0.62 0.06 0  0.63 0.06 0  0.64 0.06 0  0.65 0.06 0  0.66 0.06 0  0.67 0.06 0  0.68 0.06 0  0.6899999999999999 0.06 0  0.7 0.06 0  0.71 0.06 0  0.72 0.06 0  0.73 0.06 0  0.74 0.06 0  0.75 0.06 0  0.76 0.06 0  0.77 0.06 0  0.78 0.06 0  0.79 0.06 0  0.8 0.06 0  0.8100000000000001 0.06 0  0.82 0.06 0  0.83 0.06 0  0.84 0.06 0  0.85 0.06 0  0.86 0.06 0  0.87 0.06 0  0.88 0.06 0  0.89 0.06 0  0.9 0.06 0  0.91 0.06 0  0.92 0.06 0  0.93 0.06 0  0.9399999999999999 0.06 0  0.95 0.06 0  0.96 0.06 0  0.97 0.06 0  0.98 0.06 0  0.99 0.06 0  1 0.06 0  0 0.08 0  0.01 0.08 0  0.02 0.08 0  0.03 0.08 0  0.04 0.08 0  0.05 0.08 0  0.06 0.08 0  0.07000000000000001 0.08 0  0.08 0.08 0  0.09 0.08 0  0.1 0.08 0  0.11 0.08 0  0.12 0.08 0  0.13 0.08 0  0.14 0.08 0  0.15 0.08 0  0.16 0.08 0  0.17 0.08 0  0.18 0.08 0  0.19 0.08 0  0.2 0.08 0  0.21 0.08 0  0.22 0.08 0  0.23 0.08 0  0.24 0.08 0  0.25 0.08 0  0.26 0.08 0  0.27 0.08 0  0.28 0.08 0  0.29 0.08 0  0.3 0.08 0  0.31 0.08 0  0.32 0.08 0  0.33 0.08 0  0.34 0.08 0  0.35 0.08 0  0.36 0.08 0  0.37 0.08 0  0.38 0.08 0  0.39 0.08 0  0.4 0.08 0  0.41 0.08 0  0.42 0.08 0  0.43 0.08 0  0.44 0.08 0  0.45 0.08 0  0.46 0.08 0  0.47 0.08 0  0.48 0.08 0  0.49 0.08 0  0.5 0.08 0  0.51 0.08 0  0.52 0.08 0  0.53 0.08 0  0.54 0.08 0  0.55 0.08 0  0.5600000000000001 0.08 0  0.57 0.08 0  0.58 0.08 0  0.59 0.08 0  0.6 0.08 0  0.61 0.08 0  0.62 0.08 0  0.63 0.08 0  0.64 0.08 0  0.65 0.08 0  0.66 0.08 0  0.67 0.08 0  0.68 0.08 0  0.6899999999999999 0.08 0  0.7 0.08 0  0.71 0.08 0  0.72 0.08 0  0.73 0.08 0  0.74 0.08 0  0.75 0.08 0  0.76 0.08 0  0.77 0.08 0  0.78 0.08 0  0.79 0.08 0  0.8 0.08 0  0.8100000000000001 0.08 0  0.82 0.08 0  0.83 0.08 0  0.84 0.08 0  0.85 0.08 0  0.86 0.08 0  0.87 0.08 0  0.88 0.08 0  0.89 0.08 0  0.9 0.08 0  0.91 0.08 0  0.92 0.08 0  0.93 0.08 0  0.9399999999999999 0.08 0  0.95 0.08 0  0.96 0.08 0  0.97 0.08 0  0.98 0.08 0  0.99 0.08 0  1 0.08 0  0 0.1 0  0.01 0.1 0  0.02 0.1 0  0.03 0.1 0  0.04 0.1 0  0.05 0.1 0  0.06 0.1 0  0.07000000000000001 0.1 0  0.08 0.1 0  0.09 0.1 0  0.1 0.1 0  0.11 0.1 0  0.12 0.1 0  0.13 0.1 0  0.14 0.1 0  0.15 0.1 0  0.16 0.1 0  0.17 0.1 0  0.18 0.1 0  0.19 0.1 0  0.2 0.1 0  0.21 0.1 0  0.22 0.1 0  0.23 0.1 0  0.24 0.1 0  0.25 0.1 0  0.26 0.1 0  0.27 0.1 0  0.28 0.1 0  0.29 0.1 0  0.3 0.1 0  0.31 0.1 0  0.32 0.1 0  0.33 0.1 0  0.34 0.1 0  0.35 0.1 0  0.36 0.1 0  0.37 0.1 0  0.38 0.1 0  0.39 0.1 0  0.4 0.1 0  0.41 0.1 0  0.42 0.1 0  0.43 0.1 0  0.44 0.1 0  0.45 0.1 0  0.46 0.1 0  0.47 0.1 0  0.48 0.1 0  0.49 0.1 0  0.5 0.1 0  0.51 0.1 0  0.52 0.1 0  0.53 0.1 0  0.54 0.1 0  0.55 0.1 0  0.5600000000000001 0.1 0  0.57 0.1 0  0.58 0.1 0  0.59 0.1 0  0.6 0.1 0  0.61 0.1 0  0.62 0.1 0  0.63 0.1 0  0.64 0.1 0  0.65 0.1 0  0.66 0.1 0  0.67 0.1 0  0.68 0.1 0  0.6899999999999999 0.1 0  0.7 0.1 0  0.71 0.1 0  0.72 0.1 0  0.73 0.1 0  0.74 0.1 0  0.75 0.1 0  0.76 0.1 0  0.77 0.1 0  0.78 0.1 0  0.79 0.1 0  0.8 0.1 0  0.8100000000000001 0.1 0  0.82 0.1 0  0.83 0.1 0  0.84 0.1 0  0.85 0.1 0  0.86 0.1 0  0.87 0.1 0  0.88 0.1 0  0.89 0.1 0  0.9 0.1 0  0.91 0.1 0  0.92 0.1 0  0.93 0.1 0  0.9399999999999999 0.1 0  0.95 0.1 0  0.96 0.1 0  0.97 0.1 0  0.98 0.1 0  0.99 0.1 0  1 0.1 0  0 0.12 0  0.01 0.12 0  0.02 0.12 0  0.03 0.12 0  0.04 0.12 0  0.05 0.12 0  0.06 0.12 0  0.07000000000000001 0.12 0  0.08 0.12 0  0.09 0.12 0  0.1 0.12 0  0.11 0.12 0  0.12 0.12 0  0.13 0.12 0  0.14 0.12 0  0.15 0.12 0  0.16 0.12 0  0.17 0.12 0  0.18 0.12 0  0.19 0.12 0  0.2 0.12 0  0.21 0.12 0  0.22 0.12 0  0.23 0.12 0  0.24 0.12 0  0.25 0.12 0  0.26 0.12 0  0.27 0.12 0  0.28 0.12 0  0.29 0.12 0  0.3 0.12 0  0.31 0.12 0  0.32 0.12 0  0.33 0.12 0  0.34 0.12 0  0.35 0.12 0  0.36 0.12 0  0.37 0.12 0  0.38 0.12 0  0.39 0.12 0  0.4 0.12 0  0.41 0.12 0  0.42 0.12 0  0.43 0.12 0  0.44 0.12 0  0.45 0.12 0  0.46 0.12 0  0.47 0.12 0  0.48 0.12 0  0.49 0.12 0  0.5 0.12 0  0.51 0.12 0  0.52 0.12 0  0.53 0.12 0  0.54 0.12 0  0.55 0.12 0  0.5600000000000001 0.12 0  0.57 0.12 0  0.58 0.12 0  0.59 0.12 0  0.6 0.12 0  0.61 0.12 0  0.62 0.12 0  0.63 0.12 0  0.64 0.12 0  0.65 0.12 0  0.66 0.12 0  0.67 0.12 0  0.68 0.12 0  0.6899999999999999 0.12 0  0.7 0.12 0  0.71 0.12 0  0.72 0.12 0  0.73 0.12 0  0.74 0.12 0  0.75 0.12 0  0.76 0.12 0  0.77 0.12 0  0.78 0.12 0  0.79 0.12 0  0.8 0.12 0  0.8100000000000001 0.12 0  0.82 0.12 0  0.83 0.12 0  0.84 0.12 0  0.85 0.12 0  0.86 0.12 0  0.87 0.12 0  0.88 0.12 0  0.89 0.12 0  0.9 0.12 0  0.91 0.12 0  0.92 0.12 0  0.93 0.12 0  0.9399999999999999 0.12 0  0.95 0.12 0  0.96 0.12 0  0.97 0.12 0  0.98 0.12 0  0.99 0.12 0  1 0.12 0  0 0.14 0  0.01 0.14 0  0.02 0.14 0  0.03 0.14 0  0.04 0.14 0  0.05 0.14 0  0.06 0.14 0  0.07000000000000001 0.14 0  0.08 0.14 0  0.09 0.14 0  0.1 0.14 0  0.11 0.14 0  0.12 0.14 0  0.13 0.14 0  0.14 0.14 0  0.15 0.14 0  0.16 0.14 0  0.17 0.14 0  0.18 0.14 0  0.19 0.14 0  0.2 0.14 0  0.21 0.14 0  0.22 0.14 0  0.23 0.14 0  0.24 0.14 0  0.25 0.14 0  0.26 0.14 0  0.27 0.14 0  0.28 0.14 0  0.29 0.14 0  0.3 0.14 0  0.31 0.14 0  0.32 0.14 0  0.33 0.14 0  0.34 0.14 0  0.35 0.14 0  0.36 0.14 0  0.37 0.14 0  0.38 0.14 0  0.39 0.14 0  0.4 0.14 0  0.41 0.14 0  0.42 0.14 0  0.43 0.14 0  0.44 0.14 0  0.45 0
[...]
<PointData  Vectors="f_6-0"> 
<DataArray  type="Float64"  Name="f_6-0"  NumberOfComponents="3" format="ascii">0.0000000000000000e+00 -1.0000000000000000e+00 0.0000000000000000e+00  0.0000000000000000e+00 -1.0000000000000000e+00 0.0000000000000000e+00  0.0000000000000000e+00 -1.0000000000000000e+00 0.0000000000000000e+00  0.0000000000000000e+00 -1.0000000000000000e+00 0.0000000000000000e+00  0.0000000000000000e+00 -1.0000000000000000e+00 0.0000000000000000e+00  0.0000000000000000e+00 -1.0000000000000000e+00 0.0000000000000000e+00  0.0000000000000000e+00 -1.0000000000000000e+00 0.0000000000000000e+00  0.0000000000000000e+00 -1.0000000000000000e+00 0.0000000000000000e+00  0.0000000000000000e+00 -1.0000000000000000e+00 0.0000000000000000e+00  0.0000000000000000e+00 -1.0000000000000000e+00 0.0000000000000000e+00  0.0000000000000000e+00 -1.0000000000000000e+00 0.0000000000000000e+00  0.0000000000000000e+00 -1.0000000000000000e+00 0.0000000000000000e+00  0.0000000000000000e+00 -1.0000000000000000e+00 0.0000000000000000e+00  0.0000000000000000e+00 -1.0000000000000000e+00 0.0000000000000000e+00  0.0000000000000000e+00 -1.0000000000000000e+00 0.0000000000000000e+00  0.0000000000000000e+00 -1.0000000000000000e+00 0.0000000000000000e+00  0.0000000000000000e+00 -1.0000000000000000e+00 0.0000000000000000e+00  0.0000000000000000e+00 -1.0000000000000000e+00 0.0000000000000000e+00  0.0000000000000000e+00 -1.0000000000000000e+00 0.0000000000000000e+00  0.0000000000000000e+00 -1.0000000000000000e+00 0.0000000000000000e+00  0.0000000000000000e+00 -1.0000000000000000e+00 0.0000000000000000e+00  0.0000000000000000e+00 -1.0000000000000000e+00 0.0000000000000000e+00  0.0000000000000000e+00 -1.0000000000000000e+00 0.0000000000000000e+00  0.0000000000000000e+00 -1.0000000000000000e+00 0.0000000000000000e+00  0.0000000000000000e+00 -1.0000000000000000e+00 0.0000000000000000e+00  0.0000000000000000e+00 -1.0000000000000000e+00 0.0000000000000000e+00  0.0000000000000000e+00 -1.0000000000000000e+00 0.0000000000000000e+00  0.0000000000000000e+00 -1.0000000000000000e+00 0.0000000000000000e+00  0.0000000000000000e+00 -1.0000000000000000e+00 0.0000000000000000e+00  0.0000000000000000e+00 -1.0000000000000000e+00 0.0000000000000000e+00  0.0000000000000000e+00 -1.0000000000000000e+00 0.0000000000000000e+00  0.0000000000000000e+00 -1.0000000000000000e+00 0.0000000000000000e+00  0.0000000000000000e+00 -1.0000000000000000e+00 0.0000000000000000e+00  0.0000000000000000e+00 -1.0000000000000000e+00 0.0000000000000000e+00  0.0000000000000000e+00 -1.0000000000000000e+00 0.0000000000000000e+00  0.0000000000000000e+00 -1.0000000000000000e+00 0.0000000000000000e+00  0.0000000000000000e+00 -1.0000000000000000e+00 0.0000000000000000e+00  0.0000000000000000e+00 -1.0000000000000000e+00 0.0000000000000000e+00  0.0000000000000000e+00 -1.0000000000000000e+00 0.0000000000000000e+00  0.0000000000000000e+00 -1.0000000000000000e+00 0.0000000000000000e+00  0.0000000000000000e+00 -1.0000000000000000e+00 0.0000000000000000e+00  0.0000000000000000e+00 -1.0000000000000000e+00 0.0000000000000000e+00  0.0000000000000000e+00 -1.0000000000000000e+00 0.0000000000000000e+00  0.0000000000000000e+00 -1.0000000000000000e+00 0.0000000000000000e+00  0.0000000000000000e+00 -1.0000000000000000e+00 0.0000000000000000e+00  0.0000000000000000e+00 -1.0000000000000000e+00 0.0000000000000000e+00  0.0000000000000000e+00 -1.0000000000000000e+00 0.0000000000000000e+00  0.0000000000000000e+00 -1.0000000000000000e+00 0.0000000000000000e+00  0.0000000000000000e+00 -1.0000000000000000e+00 0.0000000000000000e+00  0.0000000000000000e+00 -1.0000000000000000e+00 0.0000000000000000e+00  0.0000000000000000e+00 -1.0000000000000000e+00 0.0000000000000000e+00  0.0000000000000000e+00 -1.0000000000000000e+00 0.0000000000000000e+00  0.0000000000000000e+00 -1.0000000000000000e+00 0.0000000000000000e+00  0.0000000000000000e+00 -1.0000000000000000e+00 0.0000000000000000e+00  0.0000000000000000e+00 -1.0000000000000000e+00 0.0000000000000000e+00  0.0000000000000000e+00 -1.0000000000000000e+00 0.0000000000000000e+00  0.0000000000000000e+00 -1.0000000000000000e+00 0.0000000000000000e+00  0.0000000000000000e+00 -1.0000000000000000e+00 0.0000000000000000e+00  0.0000000000000000e+00 -1.0000000000000000e+00 0.0000000000000000e+00  0.0000000000000000e+00 -1.0000000000000000e+00 0.0000000000000000e+00  0.0000000000000000e+00 -1.0000000000000000e+00 0.0000000000000000e+00  0.0000000000000000e+00 -1.0000000000000000e+00 0.0000000000000000e+00  0.0000000000000000e+00 -1.0000000000000000e+00 0.0000000000000000e+00  0.0000000000000000e+00 -1.0000000000000000e+00 0.0000000000000000e+00  0.0000000000000000e+00 -1.0000000000000000e+00 0.0000000000000000e+00  0.0000000000000000e+00 -1.0000000000000000e+00 0.0000000000000000e+00  0.0000000000000000e+00 -1.0000000000000000e+00 0.0000000000000000e+00  0.0000000000000000e+00 -1.0000000000000000e+00 0.0000000000000000e+00  0.0000000000000000e+00 -1.0000000000000000e+00 0.0000000000000000e+00  0.0000000000000000e+00 -1.0000000000000000e+00 0.0000000000000000e+00  0.0000000000000000e+00 -1.0000000000000000e+00 0.0000000000000000e+00  0.0000000000000000e+00 -1.0000000000000000e+00 0.0000000000000000e+00  0.0000000000000000e+00 -1.0000000000000000e+00 0.0000000000000000e+00  0.0000000000000000e+00 -1.0000000000000000e+00 0.0000000000000000e+00  0.0000000000000000e+00 -1.0000000000000000e+00 0.0000000000000000e+00  0.0000000000000000e+00 -1.0000000000000000e+00 0.0000000000000000e+00  0.0000000000000000e+00 -1.0000000000000000e+00 0.0000000000000000e+00  0.0000000000000000e+00 -1.0000000000000000e+00 0.0000000000000000e+00  0.0000000000000000e+00 -1.0000000000000000e+00 0.0000000000000000e+00  0.0000000000000000e+00 -1.0000000000000000e+00 0.0000000000000000e+00  0.0000000000000000e+00 -1.0000000000000000e+00 0.0000000000000000e+00  0.0000000000000000e+00 -1.0000000000000000e+00 0.0000000000000000e+00  0.0000000000000000e+00 -1.0000000000000000e+00 0.0000000000000000e+00  0.0000000000000000e+00 -1.0000000000000000e+00 0.0000000000000000e+00  0.0000000000000000e+00 -1.0000000000000000e+00 0.0000000000000000e+00  0.0000000000000000e+00 -1.0000000000000000e+00 0.0000000000000000e+00  0.0000000000000000e+00 -1.0000000000000000e+00 0.0000000000000000e+00  0.0000000000000000e+00 -1.0000000000000000e+00 0.0000000000000000e+00  0.0000000000000000e+00 -1.0000000000000000e+00 0.0000000000000000e+00  0.0000000000000000e+00 -1.0000000000000000e+00 0.0000000000000000e+00  0.0000000000000000e+00 -1.0000000000000000e+00 0.0000000000000000e+00  0.0000000000000000e+00 -1.0000000000000000e+00 0.0000000000000000e+00  0.0000000000000000e+00 -1.0000000000000000e+00 0.0000000000000000e+00  0.0000000000000000e+00 -1.0000000000000000e+00 0.0000000000000000e+00  0.0000000000000000e+00 -1.0000000000000000e+00 0.0000000000000000e+00  0.0000000000000000e+00 -1.0000000000000000e+00 0.0000000000000000e+00  0.0000000000000000e+00 -1.0000000000000000e+00 0.0000000000000000e+00  0.0000000000000000e+00 -1.0000000000000000e+00 0.0000000000000000e+00  0.0000000000000000e+00 -1.0000000000000000e+00 0.0000000000000000e+00  0.0000000000000000e+00 -1.0000000000000000e+00 0.0000000000000000e+00  0.0000000000000000e+00 -1.0000000000000000e+00 0.0000000000000000e+00  0.0000000000000000e+00 -1.0036575530637475e+00 0.0000000000000000e+00  5.9998001104364577e-04 -1.0036630074190689e+00 0.0000000000000000e+00  1.2006982742283920e-03 -1.0036674434280100e+00 0.0000000000000000e+00  1.8024038675242765e-03 -1.0036759203975645e+00 0.0000000000000000e+00  2.4057219213661262e-03 -1.0036879982908664e+00 0.0000000000000000e+00  3.0111368619709631e-03 -1.0037035350615486e+00 0.0000000000000000e+00  3.6191938110071565e-03 -1.0037225112963506e+00 0.0000000000000000e+00  4.2304155960950305e-03 -1.0037448922308665e+00 0.0000000000000000e+00  4.8453209341134378e-03 -1.0037706477891588e+00 0.0000000000000000e+00  5.4644237303045195e-03 -1.0037997460953714e+00 0.0000000000000000e+00  6.0882323151792150e-03 -1.0038321519801479e+00 0.0000000000000000e+00  6.7172490176778390e-03 -1.0038678265090739e+00 0.0000000000000000e+00  7.3519694962707197e-03 -1.0039067265991863e+00 0.0000000000000000e+00  7.9928820566695022e-03 -1.0039488048195719e+00 0.0000000000000000e+00  8.6404669436137543e-03 -1.0039940092369859e+00 0.0000000000000000e+00  9.2951956092052861e-03 -1.0040422832738918e+00 0.0000000000000000e+00  9.9575299599591483e-03 -1.0040935655638958e+00 0.0000000000000000e+00  1.0627921581275561e-02 -1.0041477897962199e+00 0.0000000000000000e+00  1.1306810937466018e-02 -1.0042048845446339e+00 0.0000000000000000e+00  1.1994626544802820e-02 -1.0042647730775978e+00 0.0000000000000000e+00  1.2691784114545801e-02 -1.0043273731467672e+00 0.0000000000000000e+00  1.3398685662447212e-02 -1.0043925967510907e+00 0.0000000000000000e+00  1.4115718580768925e-02 -1.0044603498735549e+00 0.0000000000000000e+00  1.4843254668353085e-02 -1.0045305321873461e+00 0.0000000000000000e+00  1.5581649113749100e-02 -1.0046030367278254e+00 0.0000000000000000e+00  1.6331239425795833e-02 -1.0046777495262331e+00 0.0000000000000000e+00  1.7092344305379745e-02 -1.0047545492006491e+00 0.0000000000000000e+00  1.7865262451335399e-02 -1.0048333064989639e+00 0.0000000000000000e+00  1.8650271292592082e-02 -1.0049138837880829e+00 0.0000000000000000e+00  1.9447625637702796e-02 -1.0049961344827796e+00 0.0000000000000000e+00  2.0257556231798739e-02 -1.0050799024066828e+00 0.0000000000000000e+00  2.1080268209765555e-02 -1.0051650210770009e+00 0.0000000000000000e+00  2.1915939433041716e-02 -1.0052513129033340e+00 0.0000000000000000e+00  2.2764718695845388e-02 -1.0053385882897523e+00 0.0000000000000000e+00  2.3626723784831133e-02 -1.0054266446277558e+00 0.0000000000000000e+00  2.4502039374147251e-02 -1.0055152651661685e+00 0.0000000000000000e+00  2.5390714735531776e-02 -1.0056042177420470e+00 0.0000000000000000e+00  2.6292761240479197e-02 -1.0056932533546059e+00 0.0000000000000000e+00  2.7208149628521704e-02 -1.0057821045616795e+00 0.0000000000000000e+00  2.8136807012297583e-02 -1.0058704836755086e+00 0.0000000000000000e+00  2.9078613586258347e-02 -1.0059580807315327e+00 0.0000000000000000e+00  3.0033399001525178e-02 -1.0060445612002462e+00 0.0000000000000000e+00  3.1000938364499919e-02 -1.0061295634082930e+00 0.0000000000000000e+00  3.1980947811272156e-02 -1.0062126956303374e+00 0.0000000000000000e+00  3.2973079603572791e-02 -1.0062935328083531e+00 0.0000000000000000e+00  3.3976916684925043e-02 -1.0063716128488669e+00 0.0000000000000000e+00  3.4991966627585754e-02 -1.0064464324429383e+00 0.0000000000000000e+00  3.6017654891855315e-02 -1.0065174423457985e+00 0.0000000000000000e+00  3.7053317309109976e-02 -1.0065840420456829e+00 0.0000000000000000e+00  3.8098191688476023e-02 -1.0066455737423237e+00 0.0000000000000000e+00  3.9151408434226417e-02 -1.0067013155459941e+00 0.0000000000000000e+00  4.0211980046641484e-02 -1.0067504737974933e+00 0.0000000000000000e+00  4.1278789363098665e-02 -1.0067921743980233e+00 0.0000000000000000e+00  4.2350576378444936e-02 -1.0068254530258205e+00 0.0000000000000000e+00  4.3425923464170652e-02 -1.0068492441035606e+00 0.0000000000000000e+00  4.4503238784455813e-02 -1.0068623683676508e+00 0.0000000000000000e+00  4.5580737683887047e-02 -1.0068635188771551e+00 0.0000000000000000e+00  4.6656421796517182e-02 -1.0068512452880769e+00 0.0000000000000000e+00  4.7728055599263734e-02 -1.0068239362075890e+00 0.0000000000000000e+00  4.8793140104742769e-02 -1.0067797994348937e+00 0.0000000000000000e+00  4.9848883360128195e-02 -1.0067168398917248e+00 0.0000000000000000e+00  5.0892167390470519e-02 -1.0066328350488760e+00 0.0000000000000000e+00  5.1919511198469770e-02 -1.0065253076685701e+00 0.0000000000000000e+00  5.2927029409980599e-02 -1.0063914957105988e+00 0.0000000000000000e+00  5.3910386138337076e-02 -1.0062283192988688e+00 0.0000000000000000e+00  5.4864743634829113e-02 -1.0060323447222952e+00 0.0000000000000000e+00  5.5784705302721928e-02 -1.0057997455612542e+00 0.0000000000000000e+00  5.6664252685418186e-02 -1.0055262612015823e+00 0.0000000000000000e+00  5.7496676105667104e-02 -1.0052071532430602e+00 0.0000000000000000e+00  5.8274498745534462e-02 -1.0048371606532389e+00 0.0000000000000000e+00  5.8989394134135259e-02 -1.0044104549953601e+00 0.0000000000000000e+00  5.9632097276012860e-02 -1.0039205977167016e+00 0.0000000000000000e+00  6.0192310039511164e-02 -1.0033605023814358e+00 0.0000000000000000e+00  6.0658601974264155e-02 -1.0027224059510926e+00 0.0000000000000000e+00  6.1018308496565053e-02 -1.0019978548626363e+00 0.0000000000000000e+00  6.1257429445615574e-02 -1.0011777138707358e+00 0.0000000000000000e+00  6.1360532471487435e-02 -1.0002522085944952e+00 0.0000000000000000e+00  6.1310667696937077e-02 -9.9921101668748358e-01 0.0000000000000000e+00  6.1089302770856523e-02 -9.9804342785896139e-01 0.0000000000000000e+00  6.0676291024199518e-02 -9.9673860004183612e-01 0.0000000000000000e+00  6.0049890239802187e-02 -9.9528594838702700e-01 0.0000000000000000e+00  5.9186855929859353e-02 -9.9367571618274408e-01 0.0000000000000000e+00  5.8062641455927336e-02 -9.9189979316572330e-01 0.0000000000000000e+00  5.6651748424102338e-02 -9.8995286813450323e-01 0.0000000000000000e+00  5.4928285270083865e-02 -9.8783403061555364e-01 0.0000000000000000e+00  5.2866810658800528e-02 -9.8554897196665792e-01 0.0000000000000000e+00  5.0443562147569398e-02 -9.8311298083572274e-01 0.0000000000000000e+00  4.7638200230814803e-02 -9.8055498122559959e-01 0.0000000000000000e+00  4.4436233496546566e-02 -9.7792292006537240e-01 0.0000000000000000e+00  4.0832330589291588e-02 -9.7529086326142767e-01 0.0000000000000000e+00  3.6834763463087818e-02 -9.7276817285622019e-01 0.0000000000000000e+00  3.2471249648843459e-02 -9.7051103487725732e-01 0.0000000000000000e+00  2.7796435891476696e-02 -9.6873620076498757e-01 0.0000000000000000e+00  2.2901117765730679e-02 -9.6773565529078143e-01 0.0000000000000000e+00  1.7922861090405511e-02 -9.6788798412576549e-01 0.0000000000000000e+00  1.3056633069724613e-02 -9.6965500707317465e-01 0.0000000000000000e+00  8.5617458234024269e-03 -9.7353473726933970e-01 0.0000000000000000e+00  4.7554398725293684e-03 -9.7989947428824298e-01 0.0000000000000000e+00  1.9743733089865522e-03 -9.8854190221403659e-01 0.0000000000000000e+00  4.5492355889075663e-04 -9.9749502667866963e-01 0.0000000000000000e+00  0.0000000000000000e+00 -1.0000000000000000e+00 0.0000000000000000e+00  0.0000000000000000e+00 -1.0141580809113859e+00 0.0000000000000000e+00  1.1405764093034322e-03 -1.0141684826051749e+00 0.0000000000000000e+00  2.2820687917384378e-03 -1.0141860931724640e+00 0.0000000000000000e+00  3.4251864976084611e-03 -1.0142153810576247e+00 0.0000000000000000e+00  4.5707559193584159e-03 -1.0142563969777478e+00 0.0000000000000000e+00  5.7195873953561367e-03 -1.0143091461256917e+00 0.0000000000000000e+00  6.8724968005670559e-03 -1.0143735266010843e+00 0.0000000000000000e+00  8.0302822947402198e-03 -1.0144494391042305e+00 0.0000000000000000e+00  9.1937399718749653e-03 -1.0145367773849296e+00 0.0000000000000000e+00  1.0363656535218689e-02 -1.0146354219470908e+00 0.0000000000000000e+00  1.1540808986058054e-02 -1.0147452396793701e+00 0.0000000000000000e+00  1.2725963306178480e-02 -1.0148660824666305e+00 0.0000000000000000e+00  1.3919873194230978e-02 -1.0149977864617410e+00 0.0000000000000000e+00  1.5123278810381178e-02 -1.0151401715301278e+00 0.0000000000000000e+00  1.6336905483422197e-02 -1.0152930407642420e+00 0.0000000000000000e+00  1.7561462390803164e-02 -1.0154561800212834e+00 0.0000000000000000e+00  1.8797641207901443e-02 -1.0156293574456181e+00 0.0000000000000000e+00  2.0046114723928733e-02 -1.0158123229549987e+00 0.0000000000000000e+00  2.1307535421209934e-02 -1.0160048076756663e+00 0.0000000000000000e+00  2.2582534013699706e-02 -1.0162065233146858e+00 0.0000000000000000e+00  2.3871717939905411e-02 -1.0164171614590811e+00 0.0000000000000000e+00  2.5175669804636473e-02 -1.0166363927914992e+00 0.0000000000000000e+00  2.6494945763235439e-02 -1.0168638662116403e+00 0.0000000000000000e+00  2.7830073841115761e-02 -1.0170992078516932e+00 0.0000000000000000e+00  2.9181552180517819e-02 -1.0173420199730041e+00 0.0000000000000000e+00  3.0549847205400868e-02 -1.0175918797293266e+00 0.0000000000000000e+00  3.1935391694247264e-02 -1.0178483377806167e+00 0.0000000000000000e+00  3.3338582749306442e-02 -1.0181109167390259e+00 0.0000000000000000e+00  3.4759779649381407e-02 -1.0183791094265509e+00 0.0000000000000000e+00  3.6199301571664823e-02 -1.0186523769210569e+00 0.0000000000000000e+00  3.7657425166328536e-02 -1.0189301463643943e+00 0.0000000000000000e+00  3.9134381965540067e-02 -1.0192118085028732e+00 0.0000000000000000e+00  4.0630355606279429e-02 -1.0194967149264682e+00 0.0000000000000000e+00  4.2145478843737275e-02 -1.0197841749686922e+00 0.0000000000000000e+00  4.3679830329147289e-02 -1.0200734522239052e+00 0.0000000000000000e+00  4.5233431122578174e-02 -1.0203637606333611e+00 0.0000000000000000e+00  4.6806240907479112e-02 -1.0206542600844926e+00 0.0000000000000000e+00  4.8398153869519983e-02 -1.0209440514608259e+00 0.0000000000000000e+00  5.0008994197476370e-02 -1.0212321710714394e+00 0.0000000000000000e+00  5.1638511158496311e-02 -1.0215175843794677e+00 0.0000000000000000e+00  5.3286373693948695e-02 -1.0217991789385317e+00 0.0000000000000000e+00  5.4952164475135928e-02 -1.0220757564338507e+00 0.0000000000000000e+00  5.6635373350330635e-02 -1.0223460237112889e+00 0.0000000000000000e+00  5.8335390105776784e-02 -1.0226085826622475e+00 0.0000000000000000e+00  6.0051496453337412e-02 -1.0228619188152788e+00 0.0000000000000000e+00  6.1782857146275939e-02 -1.0231043884658508e+00 0.0000000000000000e+00  6.3528510112040928e-02 -1.0233342041546953e+00 0.0000000000000000e+00  6.5287355476781758e-02 -1.0235494182809373e+00 0.0000000000000000e+00  6.7058143340455775e-02 -1.0237479046101736e+00 0.0000000000000000e+00  6.8839460143655842e-02 -1.0239273374085884e+00 0.0000000000000000e+00  7.0629713447519296e-02 -1.0240851679026117e+00 0.0000000000000000e+00  7.2427114926121527e-02 -1.0242185977294638e+00 0.0000000000000000e+00  7.4229661346458545e-02 -1.0243245490072488e+00 0.0000000000000000e+00  7.6035113284390263e-02 -1.0243996306146608e+00 0.0000000000000000e+00  7.7840971295652844e-02 -1.0244401002305661e+00 0.0000000000000000e+00  7.9644449229327147e-02 -1.0244418216434061e+00 0.0000000000000000e+00  8.1442444336988606e-02 -1.0244002168017379e+00 0.0000000000000000e+00  8.3231503794570186e-02 -1.0243102120421099e+00 0.0000000000000000e+00  8.5007787216117070e-02 -1.0241661779024211e+00 0.0000000000000000e+00  8.6767024699982057e-02 -1.0239618619125190e+00 0.0000000000000000e+00  8.8504469909773259e-02 -1.0236903137554105e+00 0.0000000000000000e+00  9.0214847656339511e-02 -1.0233438022207411e+00 0.0000000000000000e+00  9.1892295415747866e-02 -1.0229137234390624e+00 0.0000000000000000e+00  9.3530298195179884e-02 -1.0223905000065858e+00 0.0000000000000000e+00  9.5121616148812885e-02 -1.0217634708071721e+00 0.0000000000000000e+00  9.6658204355756117e-02 -1.0210207716393349e+00 0.0000000000000000e+00  9.8131124211039061e-02 -1.0201492071993237e+00 0.0000000000000000e+00  9.9530445960666000e-02 -1.0191341156068430e+00 0.0000000000000000e+00  1.0084514204907530e-01 -1.0179592275543881e+00 0.0000000000000000e+00  1.0206297116357597e-01 -1.0166065234022430e+00 0.0000000000000000e+00  1.0317035318397041e-01 -1.0150560932447266e+00 0.0000000000000000e+00  1.0415223571420375e-01 -1.0132860072917143e+00 0.0000000000000000e+00  1.0499195353575870e-01 -1.0112722070422318e+00 0.0000000000000000e+00  1.0567108324396124e-01 -1.0089884319361759e+00 0.0000000000000000e+00  1.0616929659213073e-01 -1.0064062017971251e+00 0.0000000000000000e+00  1.0646421778286665e-01 -1.0034948828684560e+00 0.0000000000000000e+00  1.0653129225023457e-01 -1.0002218751726384e+00 0.0000000000000000e+00  1.0634367754961392e-01 -9.9655297202996840e-01 0.0000000000000000e+00  1.05872171