<?xml version="1.0"?>
<VTKFile type="UnstructuredGrid"  version="0.1"  >
<UnstructuredGrid>
<Piece  NumberOfPoints="3721" NumberOfCells="7200">
<Points>
<DataArray  type="Float64"  NumberOfComponents="3"  format="ascii">0 0 0  0.01666666666666667 0 0  0.03333333333333333 0 0  0.05 0 0  0.06666666666666667 0 0  0.08333333333333333 0 0  0.1 0 0  0.1166666666666667 0 0  0.1333333333333333 0 0  0.15 0 0  0.1666666666666667 0 0  0.1833333333333333 0 0  0.2 0 0  0.2166666666666667 0 0  0.2333333333333333 0 0  0.25 0 0  0.2666666666666667 0 0  0.2833333333333333 0 0  0.3 0 0  0.3166666666666667 0 0  0.3333333333333333 0 0  0.35 0 0  0.3666666666666666 0 0  0.3833333333333334 0 0  0.4 0 0  0.4166666666666667 0 0  0.4333333333333333 0 0  0.45 0 0  0.4666666666666667 0 0  0.4833333333333333 0 0  0.5 0 0  0.5166666666666667 0 0  0.5333333333333333 0 0  0.55 0 0  0.5666666666666667 0 0  0.5833333333333334 0 0  0.6 0 0  0.6166666666666667 0 0  0.6333333333333333 0 0  0.65 0 0  0.6666666666666666 0 0  0.6833333333333333 0 0  0.7 0 0  0.7166666666666667 0 0  0.7333333333333333 0 0  0.75 0 0  0.7666666666666667 0 0  0.7833333333333333 0 0  0.8 0 0  0.8166666666666667 0 0  0.8333333333333334 0 0  0.85 0 0  0.8666666666666667 0 0  0.8833333333333333 0 0  0.9 0 0  0.9166666666666666 0 0  0.9333333333333333 0 0  0.95 0 0  0.9666666666666667 0 0  0.9833333333333333 0 0  1 0 0  0 0.01666666666666667 0  0.01666666666666667 0.01666666666666667 0  0.03333333333333333 0.01666666666666667 0  0.05 0.01666666666666667 0  0.06666666666666667 0.01666666666666667 0  0.08333333333333333 0.01666666666666667 0  0.1 0.01666666666666667 0  0.1166666666666667 0.01666666666666667 0  0.1333333333333333 0.01666666666666667 0  0.15 0.01666666666666667 0  0.1666666666666667 0.01666666666666667 0  0.1833333333333333 0.01666666666666667 0  0.2 0.01666666666666667 0  0.2166666666666667 0.01666666666666667 0  0.2333333333333333 0.01666666666666667 0  0.25 0.01666666666666667 0  0.2666666666666667 0.01666666666666667 0  0.2833333333333333 0.01666666666666667 0  0.3 0.01666666666666667 0  0.3166666666666667 0.01666666666666667 0  0.3333333333333333 0.01666666666666667 0  0.35 0.01666666666666667 0  0.3666666666666666 0.01666666666666667 0  0.3833333333333334 0.01666666666666667 0  0.4 0.01666666666666667 0  0.4166666666666667 0.01666666666666667 0  0.4333333333333333 0.01666666666666667 0  0.45 0.01666666666666667 0  0.4666666666666667 0.01666666666666667 0  0.4833333333333333 0.01666666666666667 0  0.5 0.01666666666666667 0  0.5166666666666667 0.01666666666666667 0  0.5333333333333333 0.01666666666666667 0  0.55 0.01666666666666667 0  0.5666666666666667 0.01666666666666667 0  0.5833333333333334 0.01666666666666667 0  0.6 0.01666666666666667 0  0.6166666666666667 0.01666666666666667 0  0.6333333333333333 0.01666666666666667 0  0.65 0.01666666666666667 0  0.6666666666666666 0.01666666666666667 0  0.6833333333333333 0.01666666666666667 0  0.7 0.01666666666666667 0  0.7166666666666667 0.01666666666666667 0  0.7333333333333333 0.01666666666666667 0  0.75 0.01666666666666667 0  0.7666666666666667 0.01666666666666667 0  0.7833333333333333 0.01666666666666667 0  0.8 0.01666666666666667 0  0.8166666666666667 0.01666666666666667 0  0.8333333333333334 0.01666666666666667 0  0.85 0.01666666666666667 0  0.8666666666666667 0.01666666666666667 0  0.8833333333333333 0.01666666666666667 0  0.9 0.01666666666666667 0  0.9166666666666666 0.01666666666666667 0  0.9333333333333333 0.01666666666666667 0  0.95 0.01666666666666667 0  0.9666666666666667 0.01666666666666667 0  0.9833333333333333 0.01666666666666667 0  1 0.01666666666666667 0  0 0.03333333333333333 0  0.01666666666666667 0.03333333333333333 0  0.03333333333333333 0.03333333333333333 0  0.05 0.03333333333333333 0  0.06666666666666667 0.03333333333333333 0  0.08333333333333333 0.03333333333333333 0  0.1 0.03333333333333333 0  0.1166666666666667 0.03333333333333333 0  0.1333333333333333 0.03333333333333333 0  0.15 0.03333333333333333 0  0.1666666666666667 0.03333333333333333 0  0.1833333333333333 0.03333333333333333 0  0.2 0.03333333333333333 0  0.2166666666666667 0.03333333333333333 0  0.2333333333333333 0.03333333333333333 0  0.25 0.03333333333333333 0  0.2666666666666667 0.03333333333333333 0  0.2833333333333333 0.03333333333333333 0  0.3 0.03333333333333333 0  0.3166666666666667 0.03333333333333333 0  0.3333333333333333 0.03333333333333333 0  0.35 0.03333333333333333 0  0.3666666666666666 0.03333333333333333 0  0.3833333333333334 0.03333333333333333 0  0.4 0.03333333333333333 0  0.4166666666666667 0.03333333333333333 0  0.4333333333333333 0.03333333333333333 0  0.45 0.03333333333333333 0  0.4666666666666667 0.03333333333333333 0  0.4833333333333333 0.03333333333333333 0  0.5 0.03333333333333333 0  0.5166666666666667 0.03333333333333333 0  0.5333333333333333 0.03333333333333333 0  0.55 0.03333333333333333 0  0.5666666666666667 0.03333333333333333 0  0.5833333333333334 0.03333333333333333 0  0.6 0.03333333333333333 0  0.6166666666666667 0.03333333333333333 0  0.6333333333333333 0.03333333333333333 0  0.65 0.03333333333333333 0  0.6666666666666666 0.03333333333333333 0  0.6833333333333333 0.03333333333333333 0  0.7 0.03333333333333333 0  0.7166666666666667 0.03333333333333333 0  0.7333333333333333 0.03333333333333333 0  0.75 0.03333333333333333 0  0.7666666666666667 0.03333333333333333 0  0.7833333333333333 0.03333333333333333 0  0.8 0.03333333333333333 0  0.8166666666666667 0.03333333333333333 0  0.8333333333333334 0.03333333333333333 0  0.85 0.03333333333333333 0  0.8666666666666667 0.03333333333333333 0  0.8833333333333333 0.03333333333333333 0  0.9 0.03333333333333333 0  0.9166666666666666 0.03333333333333333 0  0.9333333333333333 0.03333333333333333 0  0.95 0.03333333333333333 0  0.9666666666666667 0.03333333333333333 0  0.9833333333333333 0.03333333333333333 0  1 0.03333333333333333 0  0 0.05 0  0.01666666666666667 0.05 0  0.03333333333333333 0.05 0  0.05 0.05 0  0.06666666666666667 0.05 0  0.08333333333333333 0.05 0  0.1 0.05 0  0.1166666666666667 0.05 0  0.1333333333333333 0.05 0  0.15 0.05 0  0.1666666666666667 0.05 0  0.1833333333333333 0.05 0  0.2 0.05 0  0.2166666666666667 0.05 0  0.2333333333333333 0.05 0  0.25 0.05 0  0.2666666666666667 0.05 0  0.2833333333333333 0.05 0  0.3 0.05 0  0.3166666666666667 0.05 0  0.3333333333333333 0.05 0  0.35 0.05 0  0.3666666666666666 0.05 0  0.3833333333333334 0.05 0  0.4 0.05 0  0.4166666666666667 0.05 0  0.4333333333333333 0.05 0  0.45 0.05 0  0.4666666666666667 0.05 0  0.4833333333333333 0.05 0  0.5 0.05 0  0.5166666666666667 0.05 0  0.5333333333333333 0.05 0  0.55 0.05 0  0.5666666666666667 0.05 0  0.5833333333333334 0.05 0  0.6 0.05 0  0.6166666666666667 0.05 0  0.6333333333333333 0.05 0  0.65 0.05 0  0.6666666666666666 0.05 0  0.6833333333333333 0.05 0  0.7 0.05 0  0.7166666666666667 0.05 0  0.7333333333333333 0.05 0  0.75 0.05 0  0.7666666666666667 0.05 0  0.7833333333333333 0.05 0  0.8 0.05 0  0.8166666666666667 0.05 0  0.8333333333333334 0.05 0  0.85 0.05 0  0.8666666666666667 0.05 0  0.8833333333333333 0.05 0  0.9 0.05 0  0.9166666666666666 0.05 0  0.9333333333333333 0.05 0  0.95 0.05 0  0.9666666666666667 0.05 0  0.9833333333333333 0.05 0  1 0.05 0  0 0.06666666666666667 0  0.01666666666666667 0.06666666666666667 0  0.03333333333333333 0.06666666666666667 0  0.05 0.06666666666666667 0  0.06666666666666667 0.06666666666666667 0  0.08333333333333333 0.06666666666666667 0  0.1 0.06666666666666667 0  0.1166666666666667 0.06666666666666667 0  0.1333333333333333 0.06666666666666667 0  0.15 0.06666666666666667 0  0.1666666666666667 0.06666666666666667 0  0.1833333333333333 0.06666666666666667 0  0.2 0.06666666666666667 0  0.2166666666666667 0.06666666666666667 0  0.2333333333333333 0.06666666666666667 0  0.25 0.06666666666666667 0  0.2666666666666667 0.06666666666666667 0  0.2833333333333333 0.06666666666666667 0  0.3 0.06666666666666667 0  0.3166666666666667 0.06666666666666667 0  0.3333333333333333 0.06666666666666667 0  0.35 0.06666666666666667 0  0.3666666666666666 0.06666666666666667 0  0.3833333333333334 0.06666666666666667 0  0.4 0.06666666666666667 0  0.4166666666666667 0.06666666666666667 0  0.4333333333333333 0.06666666666666667 0  0.45 0.06666666666666667 0  0.4666666666666667 0.06666666666666667 0  0.4833333333333333 0.06666666666666667 0  0.5 0.06666666666666667 0  0.5166666666666667 0.06666666666666667 0  0.5333333333333333 0.06666666666666667 0  0.55 0.06666666666666667 0  0.5666666666666667 0.06666666666666667 0  0.5833333333333334 0.06666666666666667 0  0.6 0.06666666666666667 0  0.6166666666666667 0.06666666666666667 0  0.6333333333333333 0.06666666666666667 0  0.65 0.06666666666666667 0  0.6666666666666666 0.06666666666666667 0  0.6833333333333333 0.06666666666666667 0  0.7 0.06666666666666667 0  0.7166666666666667 0.06666666666666667 0  0.7333333333333333 0.06666666666666667 0  0.75 0.06666666666666667 0  0.7666666666666667 0.06666666666666667 0  0.7833333333333333 0.06666666666666667 0  0.8 0.06666666666666667 0  0.8166666666666667 0.06666666666666667 0  0.8333333333333334 0.06666666666666667 0  0.85 0.06666666666666667 0  0.8666666666666667 0.06666666666666667 0  0.8833333333333333 0.06666666666666667 0  0.9 0.06666666666666667 0  0.9166666666666666 0.06666666666666667 0  0.9333333333333333 0.06666666666666667 0  0.95 0.06666666666666667 0  0.9666666666666667 0.06666666666666667 0  0.9833333333333333 0.06666666666666667 0  1 0.06666666666666667 0  0 0.08333333333333333 0  0.01666666666666667 0.08333333333333333 0  0.03333333333333333 0.08333333333333333 0  0.05 0.08333333333333333 0  0.06666666666666667 0.08333333333333333 0  0.08333333333333333 0.08333333333333333 0  0.1 0.08333333333333333 0  0.1166666666666667 0.08333333333333333 0  0.1333333333333333 0.08333333333333333 0  0.15 0.08333333333333333 0  0.1666666666666667 0.08333333333333333 0  0.1833333333333333 0.08333333333333333 0  0.2 0.08333333333333333 0  0.2166666666666667 0.083333333333
[...]
<PointData  Vectors="f_5-0"> 
<DataArray  type="Float64"  Name="f_5-0"  NumberOfComponents="3" format="ascii">0.0000000000000000e+00 -1.0000000000000000e+00 0.0000000000000000e+00  0.0000000000000000e+00 -1.0000000000000000e+00 0.0000000000000000e+00  0.0000000000000000e+00 -1.0000000000000000e+00 0.0000000000000000e+00  0.0000000000000000e+00 -1.0000000000000000e+00 0.0000000000000000e+00  0.0000000000000000e+00 -1.0000000000000000e+00 0.0000000000000000e+00  0.0000000000000000e+00 -1.0000000000000000e+00 0.0000000000000000e+00  0.0000000000000000e+00 -1.0000000000000000e+00 0.0000000000000000e+00  0.0000000000000000e+00 -1.0000000000000000e+00 0.0000000000000000e+00  0.0000000000000000e+00 -1.0000000000000000e+00 0.0000000000000000e+00  0.0000000000000000e+00 -1.0000000000000000e+00 0.0000000000000000e+00  0.0000000000000000e+00 -1.0000000000000000e+00 0.0000000000000000e+00  0.0000000000000000e+00 -1.0000000000000000e+00 0.0000000000000000e+00  0.0000000000000000e+00 -1.0000000000000000e+00 0.0000000000000000e+00  0.0000000000000000e+00 -1.0000000000000000e+00 0.0000000000000000e+00  0.0000000000000000e+00 -1.0000000000000000e+00 0.0000000000000000e+00  0.0000000000000000e+00 -1.0000000000000000e+00 0.0000000000000000e+00  0.0000000000000000e+00 -1.0000000000000000e+00 0.0000000000000000e+00  0.0000000000000000e+00 -1.0000000000000000e+00 0.0000000000000000e+00  0.0000000000000000e+00 -1.0000000000000000e+00 0.0000000000000000e+00  0.0000000000000000e+00 -1.0000000000000000e+00 0.0000000000000000e+00  0.0000000000000000e+00 -1.0000000000000000e+00 0.0000000000000000e+00  0.0000000000000000e+00 -1.0000000000000000e+00 0.0000000000000000e+00  0.0000000000000000e+00 -1.0000000000000000e+00 0.0000000000000000e+00  0.0000000000000000e+00 -1.0000000000000000e+00 0.0000000000000000e+00  0.0000000000000000e+00 -1.0000000000000000e+00 0.0000000000000000e+00  0.0000000000000000e+00 -1.0000000000000000e+00 0.0000000000000000e+00  0.0000000000000000e+00 -1.0000000000000000e+00 0.0000000000000000e+00  0.0000000000000000e+00 -1.0000000000000000e+00 0.0000000000000000e+00  0.0000000000000000e+00 -1.0000000000000000e+00 0.0000000000000000e+00  0.0000000000000000e+00 -1.0000000000000000e+00 0.0000000000000000e+00  0.0000000000000000e+00 -1.0000000000000000e+00 0.0000000000000000e+00  0.0000000000000000e+00 -1.0000000000000000e+00 0.0000000000000000e+00  0.0000000000000000e+00 -1.0000000000000000e+00 0.0000000000000000e+00  0.0000000000000000e+00 -1.0000000000000000e+00 0.0000000000000000e+00  0.0000000000000000e+00 -1.0000000000000000e+00 0.0000000000000000e+00  0.0000000000000000e+00 -1.0000000000000000e+00 0.0000000000000000e+00  0.0000000000000000e+00 -1.0000000000000000e+00 0.0000000000000000e+00  0.0000000000000000e+00 -1.0000000000000000e+00 0.0000000000000000e+00  0.0000000000000000e+00 -1.0000000000000000e+00 0.0000000000000000e+00  0.0000000000000000e+00 -1.0000000000000000e+00 0.0000000000000000e+00  0.0000000000000000e+00 -1.0000000000000000e+00 0.0000000000000000e+00  0.0000000000000000e+00 -1.0000000000000000e+00 0.0000000000000000e+00  0.0000000000000000e+00 -1.0000000000000000e+00 0.0000000000000000e+00  0.0000000000000000e+00 -1.0000000000000000e+00 0.0000000000000000e+00  0.0000000000000000e+00 -1.0000000000000000e+00 0.0000000000000000e+00  0.0000000000000000e+00 -1.0000000000000000e+00 0.0000000000000000e+00  0.0000000000000000e+00 -1.0000000000000000e+00 0.0000000000000000e+00  0.0000000000000000e+00 -1.0000000000000000e+00 0.0000000000000000e+00  0.0000000000000000e+00 -1.0000000000000000e+00 0.0000000000000000e+00  0.0000000000000000e+00 -1.0000000000000000e+00 0.0000000000000000e+00  0.0000000000000000e+00 -1.0000000000000000e+00 0.0000000000000000e+00  0.0000000000000000e+00 -1.0000000000000000e+00 0.0000000000000000e+00  0.0000000000000000e+00 -1.0000000000000000e+00 0.0000000000000000e+00  0.0000000000000000e+00 -1.0000000000000000e+00 0.0000000000000000e+00  0.0000000000000000e+00 -1.0000000000000000e+00 0.0000000000000000e+00  0.0000000000000000e+00 -1.0000000000000000e+00 0.0000000000000000e+00  0.0000000000000000e+00 -1.0000000000000000e+00 0.0000000000000000e+00  0.0000000000000000e+00 -1.0000000000000000e+00 0.0000000000000000e+00  0.0000000000000000e+00 -1.0000000000000000e+00 0.0000000000000000e+00  0.0000000000000000e+00 -1.0000000000000000e+00 0.0000000000000000e+00  0.0000000000000000e+00 -1.0000000000000000e+00 0.0000000000000000e+00  0.0000000000000000e+00 -1.0129928311645873e+00 0.0000000000000000e+00  2.3525054425582526e-03 -1.0127964282616106e+00 0.0000000000000000e+00  4.6911958212772983e-03 -1.0123828898416647e+00 0.0000000000000000e+00  6.9363716462932778e-03 -1.0117940444183475e+00 0.0000000000000000e+00  9.0530475506918496e-03 -1.0109863058165367e+00 0.0000000000000000e+00  1.1002402747594463e-02 -1.0099870658284580e+00 0.0000000000000000e+00  1.2747975856620346e-02 -1.0087893550998404e+00 0.0000000000000000e+00  1.4257128134273107e-02 -1.0074215342732158e+00 0.0000000000000000e+00  1.5497819479501018e-02 -1.0059135419894685e+00 0.0000000000000000e+00  1.6442156070770392e-02 -1.0042501113555631e+00 0.0000000000000000e+00  1.7072722324242631e-02 -1.0025333818132620e+00 0.0000000000000000e+00  1.7376391815182936e-02 -1.0007487852093404e+00 0.0000000000000000e+00  1.7339500741205289e-02 -9.9896749306736610e-01 0.0000000000000000e+00  1.6970906088830121e-02 -9.9718685359856296e-01 0.0000000000000000e+00  1.6270051996651488e-02 -9.9549332085724718e-01 0.0000000000000000e+00  1.5250840328075466e-02 -9.9388303937627354e-01 0.0000000000000000e+00  1.3941468014989090e-02 -9.9246595452294373e-01 0.0000000000000000e+00  1.2370033188414776e-02 -9.9126477933485135e-01 0.0000000000000000e+00  1.0574842222703064e-02 -9.9027266650047630e-01 0.0000000000000000e+00  8.6045334912522378e-03 -9.8955716289261830e-01 0.0000000000000000e+00  6.5102863803016883e-03 -9.8917868155100719e-01 0.0000000000000000e+00  4.3539781437467060e-03 -9.8912905491526815e-01 0.0000000000000000e+00  2.1878241459095627e-03 -9.8935258283474525e-01 0.0000000000000000e+00  7.7824261099859268e-05 -9.8999696098504142e-01 0.0000000000000000e+00  -1.9218248238177661e-03 -9.9091461272724612e-01 0.0000000000000000e+00  -3.7491035734915318e-03 -9.9201993554664858e-01 0.0000000000000000e+00  -5.3751660861325913e-03 -9.9337431505416829e-01 0.0000000000000000e+00  -6.7440434485294071e-03 -9.9484860826058452e-01 0.0000000000000000e+00  -7.8385453216110613e-03 -9.9666902608981023e-01 0.0000000000000000e+00  -8.6263877810006245e-03 -9.9833094848337700e-01 0.0000000000000000e+00  -9.1169346377555256e-03 -9.9982751447718088e-01 0.0000000000000000e+00  -9.2924228749035193e-03 -1.0015523900721439e+00 0.0000000000000000e+00  -9.1809997167065765e-03 -1.0031124032149059e+00 0.0000000000000000e+00  -8.7811893284689153e-03 -1.0044550140123358e+00 0.0000000000000000e+00  -8.1166151985763574e-03 -1.0057915506026498e+00 0.0000000000000000e+00  -7.2257613465061023e-03 -1.0069175594591580e+00 0.0000000000000000e+00  -6.1173369113810307e-03 -1.0077535339904053e+00 0.0000000000000000e+00  -4.8403321472385063e-03 -1.0085088167521283e+00 0.0000000000000000e+00  -3.4065639151256567e-03 -1.0091733702562742e+00 0.0000000000000000e+00  -1.8647290959772380e-03 -1.0095196437232437e+00 0.0000000000000000e+00  -2.5028658038425043e-04 -1.0097378702657023e+00 0.0000000000000000e+00  1.4024402066257987e-03 -1.0097797921868850e+00 0.0000000000000000e+00  3.0624030542266921e-03 -1.0095464187305307e+00 0.0000000000000000e+00  4.6735835163651965e-03 -1.0091457669894990e+00 0.0000000000000000e+00  6.1923392677987067e-03 -1.0084544547350434e+00 0.0000000000000000e+00  7.5608282116859347e-03 -1.0074594664448946e+00 0.0000000000000000e+00  8.7135113142803710e-03 -1.0061115588472369e+00 0.0000000000000000e+00  9.5901339205107065e-03 -1.0044237628030361e+00 0.0000000000000000e+00  1.0128504171944590e-02 -1.0024329716725586e+00 0.0000000000000000e+00  1.0283820285608855e-02 -1.0002220193906195e+00 0.0000000000000000e+00  1.0029272228717356e-02 -9.9791660548155814e-01 0.0000000000000000e+00  9.3735470423979908e-03 -9.9573885129273687e-01 0.0000000000000000e+00  8.3621563920852245e-03 -9.9388050806999284e-01 0.0000000000000000e+00  7.0771294496668634e-03 -9.9255320595311514e-01 0.0000000000000000e+00  5.6311173981581763e-03 -9.9189652951006368e-01 0.0000000000000000e+00  4.1531174221154220e-03 -9.9197420158899674e-01 0.0000000000000000e+00  2.7714037720572705e-03 -9.9274302485375454e-01 0.0000000000000000e+00  1.5963833366083510e-03 -9.9408441257363100e-01 0.0000000000000000e+00  7.1274938018002097e-04 -9.9584931600725712e-01 0.0000000000000000e+00  1.7291745531262292e-04 -9.9792933459931032e-01 0.0000000000000000e+00  0.0000000000000000e+00 -1.0000000000000000e+00 0.0000000000000000e+00  0.0000000000000000e+00 -1.0448409750883445e+00 0.0000000000000000e+00  3.8444502202449196e-03 -1.0444716292774479e+00 0.0000000000000000e+00  7.6470248063188551e-03 -1.0432735760412337e+00 0.0000000000000000e+00  1.1321499739632311e-02 -1.0412993779414779e+00 0.0000000000000000e+00  1.4810803702605331e-02 -1.0386000426054263e+00 0.0000000000000000e+00  1.8053968353919356e-02 -1.0352303763501152e+00 0.0000000000000000e+00  2.0998124904793438e-02 -1.0312171533103358e+00 0.0000000000000000e+00  2.3591374415835760e-02 -1.0265982889086098e+00 0.0000000000000000e+00  2.5786269138013820e-02 -1.0214494559680496e+00 0.0000000000000000e+00  2.7545721360799403e-02 -1.0158800411057718e+00 0.0000000000000000e+00  2.8832122218813202e-02 -1.0100031824597311e+00 0.0000000000000000e+00  2.9625841925645015e-02 -1.0038937777623493e+00 0.0000000000000000e+00  2.9905817033186802e-02 -9.9770419432958890e-01 0.0000000000000000e+00  2.9664263406055873e-02 -9.9154611625730094e-01 0.0000000000000000e+00  2.8905734095713845e-02 -9.8553309460950522e-01 0.0000000000000000e+00  2.7652940034762659e-02 -9.7990878246068935e-01 0.0000000000000000e+00  2.5928942777163736e-02 -9.7473289825769804e-01 0.0000000000000000e+00  2.3773031990486582e-02 -9.7018767731491751e-01 0.0000000000000000e+00  2.1242360646078064e-02 -9.6641380100900609e-01 0.0000000000000000e+00  1.8397470042087079e-02 -9.6357934547451696e-01 0.0000000000000000e+00  1.5319228068678718e-02 -9.6172710126679439e-01 0.0000000000000000e+00  1.2084262074400194e-02 -9.6100244608006968e-01 0.0000000000000000e+00  8.7848897864830546e-03 -9.6126872267536545e-01 0.0000000000000000e+00  5.5125215568498503e-03 -9.6264149075931571e-01 0.0000000000000000e+00  2.3506626251304850e-03 -9.6521750654036564e-01 0.0000000000000000e+00  -6.0697046027234625e-04 -9.6857524668737260e-01 0.0000000000000000e+00  -3.2843071800282412e-03 -9.7276999814390774e-01 0.0000000000000000e+00  -5.6075543109254441e-03 -9.7760533723250864e-01 0.0000000000000000e+00  -7.5261582709995369e-03 -9.8295723958869696e-01 0.0000000000000000e+00  -9.0183386833909470e-03 -9.8859306776847566e-01 0.0000000000000000e+00  -1.0036809360817545e-02 -9.9420227210744694e-01 0.0000000000000000e+00  -1.0584048947406168e-02 -9.9988266703562556e-01 0.0000000000000000e+00  -1.0659588876644466e-02 -1.0052145429428982e+00 0.0000000000000000e+00  -1.0289458536977466e-02 -1.0102112603928846e+00 0.0000000000000000e+00  -9.5015425279876987e-03 -1.0149174261163258e+00 0.0000000000000000e+00  -8.3107463258721304e-03 -1.0189979931762834e+00 0.0000000000000000e+00  -6.7848762086187113e-03 -1.0224845817446124e+00 0.0000000000000000e+00  -4.9671986615444355e-03 -1.0254018093700841e+00 0.0000000000000000e+00  -2.9233836362596564e-03 -1.0277538057611522e+00 0.0000000000000000e+00  -6.9758974265210656e-04 -1.0293485089676384e+00 0.0000000000000000e+00  1.6463795181941555e-03 -1.0303380883757514e+00 0.0000000000000000e+00  4.0479491910726311e-03 -1.0306597905979624e+00 0.0000000000000000e+00  6.4303586972589612e-03 -1.0300314652607463e+00 0.0000000000000000e+00  8.7216656537499656e-03 -1.0286252230922457e+00 0.0000000000000000e+00  1.0841696712665575e-02 -1.0262305181332512e+00 0.0000000000000000e+00  1.2691074528611245e-02 -1.0226908523718112e+00 0.0000000000000000e+00  1.4179036537354852e-02 -1.0180421576819203e+00 0.0000000000000000e+00  1.5220663043700313e-02 -1.0122572802071943e+00 0.0000000000000000e+00  1.5737402647138493e-02 -1.0055498456542913e+00 0.0000000000000000e+00  1.5674261920702849e-02 -9.9821322919405842e-01 0.0000000000000000e+00  1.5017363586995231e-02 -9.9077027682878516e-01 0.0000000000000000e+00  1.3798726696547647e-02 -9.8388440327630133e-01 0.0000000000000000e+00  1.2103731711183096e-02 -9.7822121990689981e-01 0.0000000000000000e+00  1.0068987409814559e-02 -9.7440516019932588e-01 0.0000000000000000e+00  7.8667822757429642e-03 -9.7284540124485852e-01 0.0000000000000000e+00  5.6862392946021413e-03 -9.7366768415601102e-01 0.0000000000000000e+00  3.7078085704206690e-03 -9.7667160794690167e-01 0.0000000000000000e+00  2.0798013465159327e-03 -9.8140431527348582e-01 0.0000000000000000e+00  9.0263664125397641e-04 -9.8729166312915284e-01 0.0000000000000000e+00  2.1463931773213379e-04 -9.9374129049729187e-01 0.0000000000000000e+00  0.0000000000000000e+00 -1.0000000000000000e+00 0.0000000000000000e+00  0.0000000000000000e+00 -1.0877444588314160e+00 0.0000000000000000e+00  4.5872817905268821e-03 -1.0870751017392526e+00 0.0000000000000000e+00  9.1227497528502174e-03 -1.0849205714516692e+00 0.0000000000000000e+00  1.3530562487301844e-02 -1.0813294034144381e+00 0.0000000000000000e+00  1.7750096573898297e-02 -1.0764051773545598e+00 0.0000000000000000e+00  2.1718225091329178e-02 -1.0702086183688528e+00 0.0000000000000000e+00  2.5376152837194754e-02 -1.0628066642286009e+00 0.0000000000000000e+00  2.8669874287332312e-02 -1.0543050212133929e+00 0.0000000000000000e+00  3.1549600223083583e-02 -1.0447954398467698e+00 0.0000000000000000e+00  3.3969443698229289e-02 -1.0344431555094475e+00 0.0000000000000000e+00  3.5888360522214557e-02 -1.0234755797052650e+00 0.0000000000000000e+00  3.7275128057957616e-02 -1.0120114059144740e+00 0.0000000000000000e+00  3.8102663208258218e-02 -1.0002955302108298e+00 0.0000000000000000e+00  3.8355456165825766e-02 -9.8852373124180992e-01 0.0000000000000000e+00  3.8032408284329418e-02 -9.7704679004146189e-01 0.0000000000000000e+00  3.7139738986279841e-02 -9.6609495433771664e-01 0.0000000000000000e+00  3.5697110815592882e-02 -9.5590921260899797e-01 0.0000000000000000e+00  3.3734587737398056e-02 -9.4678544892927563e-01 0.0000000000000000e+00  3.1302299681771846e-02 -9.3906840005122949e-01 0.0000000000000000e+00  2.8468525158960291e-02 -9.3292613844171657e-01 0.0000000000000000e+00  2.5301039723623252e-02 -9.2861509197238190e-01 0.0000000000000000e+00  2.1876515629688131e-02 -9.2628852930894856e-01 0.0000000000000000e+00  1.8298217212078201e-02 -9.2601170809943545e-01 0.0000000000000000e+00  1.4668355886389164e-02 -9.2778288720137581e-01 0.0000000000000000e+00  1.1085125079344529e-02 -9.3153928525900742e-01 0.0000000000000000e+00  7.6327827680841521e-03 -9.3719440706193990e-01 0.0000000000000000e+00  4.4290521217996391e-03 -9.4452744020737933e-01 0.0000000000000000e+00  1.5536547679339107e-03 -9.5312132028946173e-01 0.0000000000000000e+00  -9.3352241771839145e-04 -9.6278044089700843e-01 0.0000000000000000e+00  -2.9662367390144695e-03 -9.7313753168511385e-01 0.0000000000000000e+00  -4.5095179560066465e-03 -9.8373373003254627e-01 0.0000000000000000e+00  -5.5234908610868778e-03 -9.9440096125364563e-01 0.0000000000000000e+00  -6.0176253099088898e-03 -1.0047309344651267e+00 0.0000000000000000e+00  -6.0008089305321720e-03 -1.0145841370307171e+00 0.0000000000000000e+00  -5.4902723486423624e-03 -1.0236422869123742e+00 0.0000000000000000e+00  -4.5399091248101951e-03 -1.0318647308701401e+00 0.0000000000000000e+00  -3.1850560655865643e-03 -1.0388661534786976e+00 0.0000000000000000e+00  -1.4787586622025913e-03 -1.0446715502916457e+00 0.0000000000000000e+00  5.1321448209300366e-04 -1.0492725588688476e+00 0.0000000000000000e+00  2.7078982560202166e-03 -1.0525249134405121e+00 0.0000000000000000e+00  5.0457804378718930e-03 -1.0545046308018067e+00 0.0000000000000000e+00  7.4458536303185913e-03 -1.0550301070369537e+00 0.0000000000000000e+00  9.8249926744553018e-03 -1.0538083658372017e+00 0.0000000000000000e+00  1.2091619637445180e-02 -1.0509475231183421e+00 0.0000000000000000e+00  1.4148333172919875e-02 -1.0461030034995022e+00 0.0000000000000000e+00  1.5892478103273596e-02 -1.0391338144138058e+00 0.0000000000000000e+00  1.7227604441703796e-02 -1.0300881312445729e+00 0.0000000000000000e+00  1.8057404180272452e-02 -1.0190440806033854e+00 0.0000000000000000e+00  1.8309239535495715e-02 -1.0064228548090264e+00 0.0000000000000000e+00  1.7935147815373698e-02 -9.9286110745237088e-01 0.0000000000000000e+00  1.6932196702746025e-02 -9.7932521914551796e-01 0.0000000000000000e+00  1.5346393879055419e-02 -9.6702884705462500e-01 0.0000000000000000e+00  1.3282351286864221e-02 -9.5720468391734037e-01 0.0000000000000000e+00  1.0895248019260046e-02 -9.5092523323623424e-01 0.0000000000000000e+00  8.3792727459070862e-03 -9.4888154571680228e-01 0.0000000000000000e+00  5.9433379477827411e-03 -9.5122335799213875e-01 0.0000000000000000e+00  3.7841733730641217e-03 -9.5750705541965953e-01 0.0000000000000000e+00  2.0579951318079200e-03 -9.6680297169294860e-01 0.0000000000000000e+00  8.5752483116666178e-04 -9.7788599496471029e-01 0.0000000000000000e+00  1.9331363508079353e-04 -9.8941600017770104e-01 0.0000000000000000e+00  0.0000000000000000e+00 -1.0000000000000000e+00 0.0000000000000000e+00  0.0000000000000000e+00 -1.1351741751097517e+00 0.0000000000000000e+00  4.7972518524719773e-03 -1.1342057050433827e+00 0.0000000000000000e+00  9.5500008794443814e-03 -1.1311497919757563e+00 0.0000000000000000e+00  1.4193609926353577e-02 -1.1260952494207468e+00 0.0000000000000000e+00  1.8677586996175378e-02 -1.1191111095098629e+00 0.0000000000000000e+00  2.2948979561187997e-02 -1.1102840522856157e+00 0.0000000000000000e+00  2.6955849574232929e-02 -1.0997116867027064e+00 0.0000000000000000e+00  3.0648422573964614e-02 -1.0875228931194341e+00 0.0000000000000000e+00  3.3978819112897733e-02 -1.0738588932786584e+00 0.0000000000000000e+00  3.6904594057324831e-02 -1.0589334531403189e+00 0.0000000000000000e+00  3.9382646175553995e-02 -1.0429819050840348e+00 0.0000000000000000e+00  4.1374971334891417e-02 -1.0262177843406566e+00 0.0000000000000000e+00  4.2851231116685214e-02 -1.0089425008649311e+00 0.0000000000000000e+00  4.3790196865706080e-02 -9.9150087097655359e-01 0.0000000000000000e+00  4.4173182499165346e-02 -9.7430584215305405e-01 0.0000000000000000e+00  4.3994144210392883e-02 -9.5765615159676121e-01 0.0000000000000000e+00  4.3258972524516964e-02 -9.4199363151647775e-01 0.0000000000000000e+00  4.1986626529176757e-02 -9.2773385419732302e-01 0.0000000000000000e+00  4.0208278537714137e-02 -9.1533678456736511e-01 0.0000000000000000e+00  3.7961753334089805e-02 -9.0511834500345523e-01 0.0000000000000000e+00  3.5311308889750974e-02 -8.9744071701752659e-01 0.0000000000000000e+00  3.2327528924441157e-02 -8.9258543013396374e-01 0.0000000000000000e+00  2.9087162924038189e-02 -8.9076532100849115e-01 0.0000000000000000e+00  2.5684781750497147e-02 -8.9190802777865830e-01 0.0000000000000000e+00  2.2214247220302637e-02 -8.9603364592354096e-01 0.0000000000000000e+00  1.8777323469724012e-02 -9.0300694867766618e-01 0.0000000000000000e+00  1.5460763474230602e-02 -9.1273114346364026e-01 0.0000000000000000e+00  1.2366785083431260e-02 -9.2453340959162744e-01 0.0000000000000000e+00  9.5868688911331153e-03 -9.3811410508044035e-01 0.0000000000000000e+00  7.1786454669522997e-03 -9.5285569684982463e-01 0.0000000000000000e+00  5.1982995684286964e-03 -9.6837844297646747e-01 0.0000000000000000e+00  3.6817084783112341e-03 -9.8408247737786070e-01 0.0000000000000000e+00  2.6583911256732730e-03 -9.9948169981782031e-01 0.0000000000000000e+00  2.1214597068252403e-03 -1.0143510504329663e+00 0.0000000000000000e+00  2.0606550620092686e-03 -1.0281602957138860e+00 0.0000000000000000e+00  2.4408145608705561e-03 -1.0405980839536